+ 0.01 0 1 tcp 40 ------- 1 0.0 1.0 0 0
- 0.01 0 1 tcp 40 ------- 1 0.0 1.0 0 0
r 0.032032 0 1 tcp 40 ------- 1 0.0 1.0 0 0
+ 0.032032 1 0 ack 40 ------- 1 1.0 0.0 0 1
- 0.032032 1 0 ack 40 ------- 1 1.0 0.0 0 1
r 0.054064 1 0 ack 40 ------- 1 1.0 0.0 0 1
+ 0.054064 0 1 tcp 1540 ------- 1 0.0 1.0 1 2
- 0.054064 0 1 tcp 1540 ------- 1 0.0 1.0 1 2
+ 0.054064 0 1 tcp 1540 ------- 1 0.0 1.0 2 3
- 0.055296 0 1 tcp 1540 ------- 1 0.0 1.0 2 3
r 0.077296 0 1 tcp 1540 ------- 1 0.0 1.0 1 2
+ 0.077296 1 0 ack 40 ------- 1 1.0 0.0 1 4
- 0.077296 1 0 ack 40 ------- 1 1.0 0.0 1 4
r 0.078528 0 1 tcp 1540 ------- 1 0.0 1.0 2 3
+ 0.078528 1 0 ack 40 ------- 1 1.0 0.0 2 5
- 0.078528 1 0 ack 40 ------- 1 1.0 0.0 2 5
r 0.099328 1 0 ack 40 ------- 1 1.0 0.0 1 4
+ 0.099328 0 1 tcp 1540 ------- 1 0.0 1.0 3 6
- 0.099328 0 1 tcp 1540 ------- 1 0.0 1.0 3 6
+ 0.099328 0 1 tcp 1540 ------- 1 0.0 1.0 4 7
r 0.10056 1 0 ack 40 ------- 1 1.0 0.0 2 5
+ 0.10056 0 1 tcp 1540 ------- 1 0.0 1.0 5 8
+ 0.10056 0 1 tcp 1540 ------- 1 0.0 1.0 6 9
- 0.10056 0 1 tcp 1540 ------- 1 0.0 1.0 4 7
- 0.101792 0 1 tcp 1540 ------- 1 0.0 1.0 5 8
- 0.103024 0 1 tcp 1540 ------- 1 0.0 1.0 6 9
r 0.12256 0 1 tcp 1540 ------- 1 0.0 1.0 3 6
+ 0.12256 1 0 ack 40 ------- 1 1.0 0.0 3 10
- 0.12256 1 0 ack 40 ------- 1 1.0 0.0 3 10
r 0.123792 0 1 tcp 1540 ------- 1 0.0 1.0 4 7
+ 0.123792 1 0 ack 40 ------- 1 1.0 0.0 4 11
- 0.123792 1 0 ack 40 ------- 1 1.0 0.0 4 11
r 0.125024 0 1 tcp 1540 ------- 1 0.0 1.0 5 8
+ 0.125024 1 0 ack 40 ------- 1 1.0 0.0 5 12
- 0.125024 1 0 ack 40 ------- 1 1.0 0.0 5 12
r 0.126256 0 1 tcp 1540 ------- 1 0.0 1.0 6 9
+ 0.126256 1 0 ack 40 ------- 1 1.0 0.0 6 13
- 0.126256 1 0 ack 40 ------- 1 1.0 0.0 6 13
r 0.144592 1 0 ack 40 ------- 1 1.0 0.0 3 10
+ 0.144592 0 1 tcp 1540 ------- 1 0.0 1.0 7 14
- 0.144592 0 1 tcp 1540 ------- 1 0.0 1.0 7 14
+ 0.144592 0 1 tcp 1540 ------- 1 0.0 1.0 8 15
r 0.145824 1 0 ack 40 ------- 1 1.0 0.0 4 11
+ 0.145824 0 1 tcp 1540 ------- 1 0.0 1.0 9 16
+ 0.145824 0 1 tcp 1540 ------- 1 0.0 1.0 10 17
- 0.145824 0 1 tcp 1540 ------- 1 0.0 1.0 8 15
r 0.147056 1 0 ack 40 ------- 1 1.0 0.0 5 12
+ 0.147056 0 1 tcp 1540 ------- 1 0.0 1.0 11 18
+ 0.147056 0 1 tcp 1540 ------- 1 0.0 1.0 12 19
- 0.147056 0 1 tcp 1540 ------- 1 0.0 1.0 9 16
r 0.148288 1 0 ack 40 ------- 1 1.0 0.0 6 13
+ 0.148288 0 1 tcp 1540 ------- 1 0.0 1.0 13 20
+ 0.148288 0 1 tcp 1540 ------- 1 0.0 1.0 14 21
- 0.148288 0 1 tcp 1540 ------- 1 0.0 1.0 10 17
- 0.14952 0 1 tcp 1540 ------- 1 0.0 1.0 11 18
- 0.150752 0 1 tcp 1540 ------- 1 0.0 1.0 12 19
- 0.151984 0 1 tcp 1540 ------- 1 0.0 1.0 13 20
- 0.153216 0 1 tcp 1540 ------- 1 0.0 1.0 14 21
r 0.167824 0 1 tcp 1540 ------- 1 0.0 1.0 7 14
+ 0.167824 1 0 ack 40 ------- 1 1.0 0.0 7 22
- 0.167824 1 0 ack 40 ------- 1 1.0 0.0 7 22
r 0.169056 0 1 tcp 1540 ------- 1 0.0 1.0 8 15
+ 0.169056 1 0 ack 40 ------- 1 1.0 0.0 8 23
- 0.169056 1 0 ack 40 ------- 1 1.0 0.0 8 23
r 0.170288 0 1 tcp 1540 ------- 1 0.0 1.0 9 16
+ 0.170288 1 0 ack 40 ------- 1 1.0 0.0 9 24
- 0.170288 1 0 ack 40 ------- 1 1.0 0.0 9 24
r 0.17152 0 1 tcp 1540 ------- 1 0.0 1.0 10 17
+ 0.17152 1 0 ack 40 ------- 1 1.0 0.0 10 25
- 0.17152 1 0 ack 40 ------- 1 1.0 0.0 10 25
r 0.172752 0 1 tcp 1540 ------- 1 0.0 1.0 11 18
+ 0.172752 1 0 ack 40 ------- 1 1.0 0.0 11 26
- 0.172752 1 0 ack 40 ------- 1 1.0 0.0 11 26
r 0.173984 0 1 tcp 1540 ------- 1 0.0 1.0 12 19
+ 0.173984 1 0 ack 40 ------- 1 1.0 0.0 12 27
- 0.173984 1 0 ack 40 ------- 1 1.0 0.0 12 27
r 0.175216 0 1 tcp 1540 ------- 1 0.0 1.0 13 20
+ 0.175216 1 0 ack 40 ------- 1 1.0 0.0 13 28
- 0.175216 1 0 ack 40 ------- 1 1.0 0.0 13 28
r 0.176448 0 1 tcp 1540 ------- 1 0.0 1.0 14 21
+ 0.176448 1 0 ack 40 ------- 1 1.0 0.0 14 29
- 0.176448 1 0 ack 40 ------- 1 1.0 0.0 14 29
r 0.189856 1 0 ack 40 ------- 1 1.0 0.0 7 22
+ 0.189856 0 1 tcp 1540 ------- 1 0.0 1.0 15 30
- 0.189856 0 1 tcp 1540 ------- 1 0.0 1.0 15 30
+ 0.189856 0 1 tcp 1540 ------- 1 0.0 1.0 16 31
r 0.191088 1 0 ack 40 ------- 1 1.0 0.0 8 23
+ 0.191088 0 1 tcp 1540 ------- 1 0.0 1.0 17 32
+ 0.191088 0 1 tcp 1540 ------- 1 0.0 1.0 18 33
- 0.191088 0 1 tcp 1540 ------- 1 0.0 1.0 16 31
r 0.19232 1 0 ack 40 ------- 1 1.0 0.0 9 24
+ 0.19232 0 1 tcp 1540 ------- 1 0.0 1.0 19 34
+ 0.19232 0 1 tcp 1540 ------- 1 0.0 1.0 20 35
- 0.19232 0 1 tcp 1540 ------- 1 0.0 1.0 17 32
r 0.193552 1 0 ack 40 ------- 1 1.0 0.0 10 25
+ 0.193552 0 1 tcp 1540 ------- 1 0.0 1.0 21 36
+ 0.193552 0 1 tcp 1540 ------- 1 0.0 1.0 22 37
- 0.193552 0 1 tcp 1540 ------- 1 0.0 1.0 18 33
r 0.194784 1 0 ack 40 ------- 1 1.0 0.0 11 26
+ 0.194784 0 1 tcp 1540 ------- 1 0.0 1.0 23 38
+ 0.194784 0 1 tcp 1540 ------- 1 0.0 1.0 24 39
- 0.194784 0 1 tcp 1540 ------- 1 0.0 1.0 19 34
r 0.196016 1 0 ack 40 ------- 1 1.0 0.0 12 27
+ 0.196016 0 1 tcp 1540 ------- 1 0.0 1.0 25 40
+ 0.196016 0 1 tcp 1540 ------- 1 0.0 1.0 26 41
- 0.196016 0 1 tcp 1540 ------- 1 0.0 1.0 20 35
r 0.197248 1 0 ack 40 ------- 1 1.0 0.0 13 28
+ 0.197248 0 1 tcp 1540 ------- 1 0.0 1.0 27 42
+ 0.197248 0 1 tcp 1540 ------- 1 0.0 1.0 28 43
- 0.197248 0 1 tcp 1540 ------- 1 0.0 1.0 21 36
r 0.19848 1 0 ack 40 ------- 1 1.0 0.0 14 29
+ 0.19848 0 1 tcp 1540 ------- 1 0.0 1.0 29 44
+ 0.19848 0 1 tcp 1540 ------- 1 0.0 1.0 30 45
- 0.19848 0 1 tcp 1540 ------- 1 0.0 1.0 22 37
- 0.199712 0 1 tcp 1540 ------- 1 0.0 1.0 23 38
- 0.200944 0 1 tcp 1540 ------- 1 0.0 1.0 24 39
- 0.202176 0 1 tcp 1540 ------- 1 0.0 1.0 25 40
- 0.203408 0 1 tcp 1540 ------- 1 0.0 1.0 26 41
- 0.20464 0 1 tcp 1540 ------- 1 0.0 1.0 27 42
- 0.205872 0 1 tcp 1540 ------- 1 0.0 1.0 28 43
- 0.207104 0 1 tcp 1540 ------- 1 0.0 1.0 29 44
- 0.208336 0 1 tcp 1540 ------- 1 0.0 1.0 30 45
r 0.213088 0 1 tcp 1540 ------- 1 0.0 1.0 15 30
+ 0.213088 1 0 ack 40 ------- 1 1.0 0.0 15 46
- 0.213088 1 0 ack 40 ------- 1 1.0 0.0 15 46
r 0.21432 0 1 tcp 1540 ------- 1 0.0 1.0 16 31
+ 0.21432 1 0 ack 40 ------- 1 1.0 0.0 16 47
- 0.21432 1 0 ack 40 ------- 1 1.0 0.0 16 47
r 0.215552 0 1 tcp 1540 ------- 1 0.0 1.0 17 32
+ 0.215552 1 0 ack 40 ------- 1 1.0 0.0 17 48
- 0.215552 1 0 ack 40 ------- 1 1.0 0.0 17 48
r 0.216784 0 1 tcp 1540 ------- 1 0.0 1.0 18 33
+ 0.216784 1 0 ack 40 ------- 1 1.0 0.0 18 49
- 0.216784 1 0 ack 40 ------- 1 1.0 0.0 18 49
r 0.218016 0 1 tcp 1540 ------- 1 0.0 1.0 19 34
+ 0.218016 1 0 ack 40 ------- 1 1.0 0.0 19 50
- 0.218016 1 0 ack 40 ------- 1 1.0 0.0 19 50
r 0.219248 0 1 tcp 1540 ------- 1 0.0 1.0 20 35
+ 0.219248 1 0 ack 40 ------- 1 1.0 0.0 20 51
- 0.219248 1 0 ack 40 ------- 1 1.0 0.0 20 51
r 0.22048 0 1 tcp 1540 ------- 1 0.0 1.0 21 36
+ 0.22048 1 0 ack 40 ------- 1 1.0 0.0 21 52
- 0.22048 1 0 ack 40 ------- 1 1.0 0.0 21 52
r 0.221712 0 1 tcp 1540 ------- 1 0.0 1.0 22 37
+ 0.221712 1 0 ack 40 ------- 1 1.0 0.0 22 53
- 0.221712 1 0 ack 40 ------- 1 1.0 0.0 22 53
r 0.222944 0 1 tcp 1540 ------- 1 0.0 1.0 23 38
+ 0.222944 1 0 ack 40 ------- 1 1.0 0.0 23 54
- 0.222944 1 0 ack 40 ------- 1 1.0 0.0 23 54
r 0.224176 0 1 tcp 1540 ------- 1 0.0 1.0 24 39
+ 0.224176 1 0 ack 40 ------- 1 1.0 0.0 24 55
- 0.224176 1 0 ack 40 ------- 1 1.0 0.0 24 55
r 0.225408 0 1 tcp 1540 ------- 1 0.0 1.0 25 40
+ 0.225408 1 0 ack 40 ------- 1 1.0 0.0 25 56
- 0.225408 1 0 ack 40 ------- 1 1.0 0.0 25 56
r 0.22664 0 1 tcp 1540 ------- 1 0.0 1.0 26 41
+ 0.22664 1 0 ack 40 ------- 1 1.0 0.0 26 57
- 0.22664 1 0 ack 40 ------- 1 1.0 0.0 26 57
r 0.227872 0 1 tcp 1540 ------- 1 0.0 1.0 27 42
+ 0.227872 1 0 ack 40 ------- 1 1.0 0.0 27 58
- 0.227872 1 0 ack 40 ------- 1 1.0 0.0 27 58
r 0.229104 0 1 tcp 1540 ------- 1 0.0 1.0 28 43
+ 0.229104 1 0 ack 40 ------- 1 1.0 0.0 28 59
- 0.229104 1 0 ack 40 ------- 1 1.0 0.0 28 59
r 0.230336 0 1 tcp 1540 ------- 1 0.0 1.0 29 44
+ 0.230336 1 0 ack 40 ------- 1 1.0 0.0 29 60
- 0.230336 1 0 ack 40 ------- 1 1.0 0.0 29 60
r 0.231568 0 1 tcp 1540 ------- 1 0.0 1.0 30 45
+ 0.231568 1 0 ack 40 ------- 1 1.0 0.0 30 61
- 0.231568 1 0 ack 40 ------- 1 1.0 0.0 30 61
r 0.23512 1 0 ack 40 ------- 1 1.0 0.0 15 46
+ 0.23512 0 1 tcp 1540 ------- 1 0.0 1.0 31 62
- 0.23512 0 1 tcp 1540 ------- 1 0.0 1.0 31 62
+ 0.23512 0 1 tcp 1540 ------- 1 0.0 1.0 32 63
r 0.236352 1 0 ack 40 ------- 1 1.0 0.0 16 47
+ 0.236352 0 1 tcp 1540 ------- 1 0.0 1.0 33 64
+ 0.236352 0 1 tcp 1540 ------- 1 0.0 1.0 34 65
- 0.236352 0 1 tcp 1540 ------- 1 0.0 1.0 32 63
r 0.237584 1 0 ack 40 ------- 1 1.0 0.0 17 48
+ 0.237584 0 1 tcp 1540 ------- 1 0.0 1.0 35 66
+ 0.237584 0 1 tcp 1540 ------- 1 0.0 1.0 36 67
- 0.237584 0 1 tcp 1540 ------- 1 0.0 1.0 33 64
r 0.238816 1 0 ack 40 ------- 1 1.0 0.0 18 49
+ 0.238816 0 1 tcp 1540 ------- 1 0.0 1.0 37 68
+ 0.238816 0 1 tcp 1540 ------- 1 0.0 1.0 38 69
- 0.238816 0 1 tcp 1540 ------- 1 0.0 1.0 34 65
r 0.240048 1 0 ack 40 ------- 1 1.0 0.0 19 50
+ 0.240048 0 1 tcp 1540 ------- 1 0.0 1.0 39 70
- 0.240048 0 1 tcp 1540 ------- 1 0.0 1.0 35 66
r 0.24128 1 0 ack 40 ------- 1 1.0 0.0 20 51
+ 0.24128 0 1 tcp 1540 ------- 1 0.0 1.0 40 71
- 0.24128 0 1 tcp 1540 ------- 1 0.0 1.0 36 67
r 0.242512 1 0 ack 40 ------- 1 1.0 0.0 21 52
+ 0.242512 0 1 tcp 1540 ------- 1 0.0 1.0 41 72
- 0.242512 0 1 tcp 1540 ------- 1 0.0 1.0 37 68
r 0.243744 1 0 ack 40 ------- 1 1.0 0.0 22 53
+ 0.243744 0 1 tcp 1540 ------- 1 0.0 1.0 42 73
- 0.243744 0 1 tcp 1540 ------- 1 0.0 1.0 38 69
r 0.244976 1 0 ack 40 ------- 1 1.0 0.0 23 54
+ 0.244976 0 1 tcp 1540 ------- 1 0.0 1.0 43 74
- 0.244976 0 1 tcp 1540 ------- 1 0.0 1.0 39 70
r 0.246208 1 0 ack 40 ------- 1 1.0 0.0 24 55
+ 0.246208 0 1 tcp 1540 ------- 1 0.0 1.0 44 75
- 0.246208 0 1 tcp 1540 ------- 1 0.0 1.0 40 71
r 0.24744 1 0 ack 40 ------- 1 1.0 0.0 25 56
+ 0.24744 0 1 tcp 1540 ------- 1 0.0 1.0 45 76
- 0.24744 0 1 tcp 1540 ------- 1 0.0 1.0 41 72
r 0.248672 1 0 ack 40 ------- 1 1.0 0.0 26 57
+ 0.248672 0 1 tcp 1540 ------- 1 0.0 1.0 46 77
- 0.248672 0 1 tcp 1540 ------- 1 0.0 1.0 42 73
r 0.249904 1 0 ack 40 ------- 1 1.0 0.0 27 58
+ 0.249904 0 1 tcp 1540 ------- 1 0.0 1.0 47 78
- 0.249904 0 1 tcp 1540 ------- 1 0.0 1.0 43 74
r 0.251136 1 0 ack 40 ------- 1 1.0 0.0 28 59
+ 0.251136 0 1 tcp 1540 ------- 1 0.0 1.0 48 79
- 0.251136 0 1 tcp 1540 ------- 1 0.0 1.0 44 75
r 0.252368 1 0 ack 40 ------- 1 1.0 0.0 29 60
+ 0.252368 0 1 tcp 1540 ------- 1 0.0 1.0 49 80
- 0.252368 0 1 tcp 1540 ------- 1 0.0 1.0 45 76
r 0.2536 1 0 ack 40 ------- 1 1.0 0.0 30 61
+ 0.2536 0 1 tcp 1540 ------- 1 0.0 1.0 50 81
- 0.2536 0 1 tcp 1540 ------- 1 0.0 1.0 46 77
- 0.254832 0 1 tcp 1540 ------- 1 0.0 1.0 47 78
- 0.256064 0 1 tcp 1540 ------- 1 0.0 1.0 48 79
- 0.257296 0 1 tcp 1540 ------- 1 0.0 1.0 49 80
r 0.258352 0 1 tcp 1540 ------- 1 0.0 1.0 31 62
+ 0.258352 1 0 ack 40 ------- 1 1.0 0.0 31 82
- 0.258352 1 0 ack 40 ------- 1 1.0 0.0 31 82
- 0.258528 0 1 tcp 1540 ------- 1 0.0 1.0 50 81
r 0.259584 0 1 tcp 1540 ------- 1 0.0 1.0 32 63
+ 0.259584 1 0 ack 40 ------- 1 1.0 0.0 32 83
- 0.259584 1 0 ack 40 ------- 1 1.0 0.0 32 83
r 0.260816 0 1 tcp 1540 ------- 1 0.0 1.0 33 64
+ 0.260816 1 0 ack 40 ------- 1 1.0 0.0 33 84
- 0.260816 1 0 ack 40 ------- 1 1.0 0.0 33 84
r 0.262048 0 1 tcp 1540 ------- 1 0.0 1.0 34 65
+ 0.262048 1 0 ack 40 ------- 1 1.0 0.0 34 85
- 0.262048 1 0 ack 40 ------- 1 1.0 0.0 34 85
r 0.26328 0 1 tcp 1540 ------- 1 0.0 1.0 35 66
+ 0.26328 1 0 ack 40 ------- 1 1.0 0.0 35 86
- 0.26328 1 0 ack 40 ------- 1 1.0 0.0 35 86
r 0.264512 0 1 tcp 1540 ------- 1 0.0 1.0 36 67
+ 0.264512 1 0 ack 40 ------- 1 1.0 0.0 36 87
- 0.264512 1 0 ack 40 ------- 1 1.0 0.0 36 87
r 0.265744 0 1 tcp 1540 ------- 1 0.0 1.0 37 68
+ 0.265744 1 0 ack 40 ------- 1 1.0 0.0 37 88
- 0.265744 1 0 ack 40 ------- 1 1.0 0.0 37 88
r 0.266976 0 1 tcp 1540 ------- 1 0.0 1.0 38 69
+ 0.266976 1 0 ack 40 ------- 1 1.0 0.0 38 89
- 0.266976 1 0 ack 40 ------- 1 1.0 0.0 38 89
r 0.268208 0 1 tcp 1540 ------- 1 0.0 1.0 39 70
+ 0.268208 1 0 ack 40 ------- 1 1.0 0.0 39 90
- 0.268208 1 0 ack 40 ------- 1 1.0 0.0 39 90
r 0.26944 0 1 tcp 1540 ------- 1 0.0 1.0 40 71
+ 0.26944 1 0 ack 40 ------- 1 1.0 0.0 40 91
- 0.26944 1 0 ack 40 ------- 1 1.0 0.0 40 91
r 0.270672 0 1 tcp 1540 ------- 1 0.0 1.0 41 72
+ 0.270672 1 0 ack 40 ------- 1 1.0 0.0 41 92
- 0.270672 1 0 ack 40 ------- 1 1.0 0.0 41 92
r 0.271904 0 1 tcp 1540 ------- 1 0.0 1.0 42 73
+ 0.271904 1 0 ack 40 ------- 1 1.0 0.0 42 93
- 0.271904 1 0 ack 40 ------- 1 1.0 0.0 42 93
r 0.273136 0 1 tcp 1540 ------- 1 0.0 1.0 43 74
+ 0.273136 1 0 ack 40 ------- 1 1.0 0.0 43 94
- 0.273136 1 0 ack 40 ------- 1 1.0 0.0 43 94
r 0.274368 0 1 tcp 1540 ------- 1 0.0 1.0 44 75
+ 0.274368 1 0 ack 40 ------- 1 1.0 0.0 44 95
- 0.274368 1 0 ack 40 ------- 1 1.0 0.0 44 95
r 0.2756 0 1 tcp 1540 ------- 1 0.0 1.0 45 76
+ 0.2756 1 0 ack 40 ------- 1 1.0 0.0 45 96
- 0.2756 1 0 ack 40 ------- 1 1.0 0.0 45 96
r 0.276832 0 1 tcp 1540 ------- 1 0.0 1.0 46 77
+ 0.276832 1 0 ack 40 ------- 1 1.0 0.0 46 97
- 0.276832 1 0 ack 40 ------- 1 1.0 0.0 46 97
r 0.278064 0 1 tcp 1540 ------- 1 0.0 1.0 47 78
+ 0.278064 1 0 ack 40 ------- 1 1.0 0.0 47 98
- 0.278064 1 0 ack 40 ------- 1 1.0 0.0 47 98
r 0.279296 0 1 tcp 1540 ------- 1 0.0 1.0 48 79
+ 0.279296 1 0 ack 40 ------- 1 1.0 0.0 48 99
- 0.279296 1 0 ack 40 ------- 1 1.0 0.0 48 99
r 0.280384 1 0 ack 40 ------- 1 1.0 0.0 31 82
+ 0.280384 0 1 tcp 1540 ------- 1 0.0 1.0 51 100
- 0.280384 0 1 tcp 1540 ------- 1 0.0 1.0 51 100
r 0.280528 0 1 tcp 1540 ------- 1 0.0 1.0 49 80
+ 0.280528 1 0 ack 40 ------- 1 1.0 0.0 49 101
- 0.280528 1 0 ack 40 ------- 1 1.0 0.0 49 101
r 0.281616 1 0 ack 40 ------- 1 1.0 0.0 32 83
+ 0.281616 0 1 tcp 1540 ------- 1 0.0 1.0 52 102
- 0.281616 0 1 tcp 1540 ------- 1 0.0 1.0 52 102
r 0.28176 0 1 tcp 1540 ------- 1 0.0 1.0 50 81
+ 0.28176 1 0 ack 40 ------- 1 1.0 0.0 50 103
- 0.28176 1 0 ack 40 ------- 1 1.0 0.0 50 103
r 0.282848 1 0 ack 40 ------- 1 1.0 0.0 33 84
+ 0.282848 0 1 tcp 1540 ------- 1 0.0 1.0 53 104
- 0.282848 0 1 tcp 1540 ------- 1 0.0 1.0 53 104
r 0.28408 1 0 ack 40 ------- 1 1.0 0.0 34 85
+ 0.28408 0 1 tcp 1540 ------- 1 0.0 1.0 54 105
- 0.28408 0 1 tcp 1540 ------- 1 0.0 1.0 54 105
r 0.285312 1 0 ack 40 ------- 1 1.0 0.0 35 86
+ 0.285312 0 1 tcp 1540 ------- 1 0.0 1.0 55 106
- 0.285312 0 1 tcp 1540 ------- 1 0.0 1.0 55 106
r 0.286544 1 0 ack 40 ------- 1 1.0 0.0 36 87
+ 0.286544 0 1 tcp 1540 ------- 1 0.0 1.0 56 107
- 0.286544 0 1 tcp 1540 ------- 1 0.0 1.0 56 107
r 0.287776 1 0 ack 40 ------- 1 1.0 0.0 37 88
+ 0.287776 0 1 tcp 1540 ------- 1 0.0 1.0 57 108
- 0.287776 0 1 tcp 1540 ------- 1 0.0 1.0 57 108
r 0.289008 1 0 ack 40 ------- 1 1.0 0.0 38 89
+ 0.289008 0 1 tcp 1540 ------- 1 0.0 1.0 58 109
- 0.289008 0 1 tcp 1540 ------- 1 0.0 1.0 58 109
r 0.29024 1 0 ack 40 ------- 1 1.0 0.0 39 90
+ 0.29024 0 1 tcp 1540 ------- 1 0.0 1.0 59 110
- 0.29024 0 1 tcp 1540 ------- 1 0.0 1.0 59 110
r 0.291472 1 0 ack 40 ------- 1 1.0 0.0 40 91
+ 0.291472 0 1 tcp 1540 ------- 1 0.0 1.0 60 111
- 0.291472 0 1 tcp 1540 ------- 1 0.0 1.0 60 111
r 0.292704 1 0 ack 40 ------- 1 1.0 0.0 41 92
+ 0.292704 0 1 tcp 1540 ------- 1 0.0 1.0 61 112
- 0.292704 0 1 tcp 1540 ------- 1 0.0 1.0 61 112
r 0.293936 1 0 ack 40 ------- 1 1.0 0.0 42 93
+ 0.293936 0 1 tcp 1540 ------- 1 0.0 1.0 62 113
- 0.293936 0 1 tcp 1540 ------- 1 0.0 1.0 62 113
r 0.295168 1 0 ack 40 ------- 1 1.0 0.0 43 94
+ 0.295168 0 1 tcp 1540 ------- 1 0.0 1.0 63 114
- 0.295168 0 1 tcp 1540 ------- 1 0.0 1.0 63 114
r 0.2964 1 0 ack 40 ------- 1 1.0 0.0 44 95
+ 0.2964 0 1 tcp 1540 ------- 1 0.0 1.0 64 115
- 0.2964 0 1 tcp 1540 ------- 1 0.0 1.0 64 115
r 0.297632 1 0 ack 40 ------- 1 1.0 0.0 45 96
+ 0.297632 0 1 tcp 1540 ------- 1 0.0 1.0 65 116
- 0.297632 0 1 tcp 1540 ------- 1 0.0 1.0 65 116
r 0.298864 1 0 ack 40 ------- 1 1.0 0.0 46 97
+ 0.298864 0 1 tcp 1540 ------- 1 0.0 1.0 66 117
- 0.298864 0 1 tcp 1540 ------- 1 0.0 1.0 66 117
r 0.300096 1 0 ack 40 ------- 1 1.0 0.0 47 98
+ 0.300096 0 1 tcp 1540 ------- 1 0.0 1.0 67 118
- 0.300096 0 1 tcp 1540 ------- 1 0.0 1.0 67 118
r 0.301328 1 0 ack 40 ------- 1 1.0 0.0 48 99
+ 0.301328 0 1 tcp 1540 ------- 1 0.0 1.0 68 119
- 0.301328 0 1 tcp 1540 ------- 1 0.0 1.0 68 119
r 0.30256 1 0 ack 40 ------- 1 1.0 0.0 49 101
+ 0.30256 0 1 tcp 1540 ------- 1 0.0 1.0 69 120
- 0.30256 0 1 tcp 1540 ------- 1 0.0 1.0 69 120
r 0.303616 0 1 tcp 1540 ------- 1 0.0 1.0 51 100
+ 0.303616 1 0 ack 40 ------- 1 1.0 0.0 51 121
- 0.303616 1 0 ack 40 ------- 1 1.0 0.0 51 121
r 0.303792 1 0 ack 40 ------- 1 1.0 0.0 50 103
+ 0.303792 0 1 tcp 1540 ------- 1 0.0 1.0 70 122
- 0.303792 0 1 tcp 1540 ------- 1 0.0 1.0 70 122
r 0.304848 0 1 tcp 1540 ------- 1 0.0 1.0 52 102
+ 0.304848 1 0 ack 40 ------- 1 1.0 0.0 52 123
- 0.304848 1 0 ack 40 ------- 1 1.0 0.0 52 123
r 0.30608 0 1 tcp 1540 ------- 1 0.0 1.0 53 104
+ 0.30608 1 0 ack 40 ------- 1 1.0 0.0 53 124
- 0.30608 1 0 ack 40 ------- 1 1.0 0.0 53 124
r 0.307312 0 1 tcp 1540 ------- 1 0.0 1.0 54 105
+ 0.307312 1 0 ack 40 ------- 1 1.0 0.0 54 125
- 0.307312 1 0 ack 40 ------- 1 1.0 0.0 54 125
r 0.308544 0 1 tcp 1540 ------- 1 0.0 1.0 55 106
+ 0.308544 1 0 ack 40 ------- 1 1.0 0.0 55 126
- 0.308544 1 0 ack 40 ------- 1 1.0 0.0 55 126
r 0.309776 0 1 tcp 1540 ------- 1 0.0 1.0 56 107
+ 0.309776 1 0 ack 40 ------- 1 1.0 0.0 56 127
- 0.309776 1 0 ack 40 ------- 1 1.0 0.0 56 127
r 0.311008 0 1 tcp 1540 ------- 1 0.0 1.0 57 108
+ 0.311008 1 0 ack 40 ------- 1 1.0 0.0 57 128
- 0.311008 1 0 ack 40 ------- 1 1.0 0.0 57 128
r 0.31224 0 1 tcp 1540 ------- 1 0.0 1.0 58 109
+ 0.31224 1 0 ack 40 ------- 1 1.0 0.0 58 129
- 0.31224 1 0 ack 40 ------- 1 1.0 0.0 58 129
r 0.313472 0 1 tcp 1540 ------- 1 0.0 1.0 59 110
+ 0.313472 1 0 ack 40 ------- 1 1.0 0.0 59 130
- 0.313472 1 0 ack 40 ------- 1 1.0 0.0 59 130
r 0.314704 0 1 tcp 1540 ------- 1 0.0 1.0 60 111
+ 0.314704 1 0 ack 40 ------- 1 1.0 0.0 60 131
- 0.314704 1 0 ack 40 ------- 1 1.0 0.0 60 131
r 0.315936 0 1 tcp 1540 ------- 1 0.0 1.0 61 112
+ 0.315936 1 0 ack 40 ------- 1 1.0 0.0 61 132
- 0.315936 1 0 ack 40 ------- 1 1.0 0.0 61 132
r 0.317168 0 1 tcp 1540 ------- 1 0.0 1.0 62 113
+ 0.317168 1 0 ack 40 ------- 1 1.0 0.0 62 133
- 0.317168 1 0 ack 40 ------- 1 1.0 0.0 62 133
r 0.3184 0 1 tcp 1540 ------- 1 0.0 1.0 63 114
+ 0.3184 1 0 ack 40 ------- 1 1.0 0.0 63 134
- 0.3184 1 0 ack 40 ------- 1 1.0 0.0 63 134
r 0.319632 0 1 tcp 1540 ------- 1 0.0 1.0 64 115
+ 0.319632 1 0 ack 40 ------- 1 1.0 0.0 64 135
- 0.319632 1 0 ack 40 ------- 1 1.0 0.0 64 135
r 0.320864 0 1 tcp 1540 ------- 1 0.0 1.0 65 116
+ 0.320864 1 0 ack 40 ------- 1 1.0 0.0 65 136
- 0.320864 1 0 ack 40 ------- 1 1.0 0.0 65 136
r 0.322096 0 1 tcp 1540 ------- 1 0.0 1.0 66 117
+ 0.322096 1 0 ack 40 ------- 1 1.0 0.0 66 137
- 0.322096 1 0 ack 40 ------- 1 1.0 0.0 66 137
r 0.323328 0 1 tcp 1540 ------- 1 0.0 1.0 67 118
+ 0.323328 1 0 ack 40 ------- 1 1.0 0.0 67 138
- 0.323328 1 0 ack 40 ------- 1 1.0 0.0 67 138
r 0.32456 0 1 tcp 1540 ------- 1 0.0 1.0 68 119
+ 0.32456 1 0 ack 40 ------- 1 1.0 0.0 68 139
- 0.32456 1 0 ack 40 ------- 1 1.0 0.0 68 139
r 0.325648 1 0 ack 40 ------- 1 1.0 0.0 51 121
+ 0.325648 0 1 tcp 1540 ------- 1 0.0 1.0 71 140
- 0.325648 0 1 tcp 1540 ------- 1 0.0 1.0 71 140
r 0.325792 0 1 tcp 1540 ------- 1 0.0 1.0 69 120
+ 0.325792 1 0 ack 40 ------- 1 1.0 0.0 69 141
- 0.325792 1 0 ack 40 ------- 1 1.0 0.0 69 141
r 0.32688 1 0 ack 40 ------- 1 1.0 0.0 52 123
+ 0.32688 0 1 tcp 1540 ------- 1 0.0 1.0 72 142
- 0.32688 0 1 tcp 1540 ------- 1 0.0 1.0 72 142
r 0.327024 0 1 tcp 1540 ------- 1 0.0 1.0 70 122
+ 0.327024 1 0 ack 40 ------- 1 1.0 0.0 70 143
- 0.327024 1 0 ack 40 ------- 1 1.0 0.0 70 143
r 0.328112 1 0 ack 40 ------- 1 1.0 0.0 53 124
+ 0.328112 0 1 tcp 1540 ------- 1 0.0 1.0 73 144
- 0.328112 0 1 tcp 1540 ------- 1 0.0 1.0 73 144
r 0.329344 1 0 ack 40 ------- 1 1.0 0.0 54 125
+ 0.329344 0 1 tcp 1540 ------- 1 0.0 1.0 74 145
- 0.329344 0 1 tcp 1540 ------- 1 0.0 1.0 74 145
r 0.330576 1 0 ack 40 ------- 1 1.0 0.0 55 126
+ 0.330576 0 1 tcp 1540 ------- 1 0.0 1.0 75 146
- 0.330576 0 1 tcp 1540 ------- 1 0.0 1.0 75 146
r 0.331808 1 0 ack 40 ------- 1 1.0 0.0 56 127
+ 0.331808 0 1 tcp 1540 ------- 1 0.0 1.0 76 147
- 0.331808 0 1 tcp 1540 ------- 1 0.0 1.0 76 147
r 0.33304 1 0 ack 40 ------- 1 1.0 0.0 57 128
+ 0.33304 0 1 tcp 1540 ------- 1 0.0 1.0 77 148
- 0.33304 0 1 tcp 1540 ------- 1 0.0 1.0 77 148
r 0.334272 1 0 ack 40 ------- 1 1.0 0.0 58 129
+ 0.334272 0 1 tcp 1540 ------- 1 0.0 1.0 78 149
- 0.334272 0 1 tcp 1540 ------- 1 0.0 1.0 78 149
r 0.335504 1 0 ack 40 ------- 1 1.0 0.0 59 130
+ 0.335504 0 1 tcp 1540 ------- 1 0.0 1.0 79 150
- 0.335504 0 1 tcp 1540 ------- 1 0.0 1.0 79 150
r 0.336736 1 0 ack 40 ------- 1 1.0 0.0 60 131
+ 0.336736 0 1 tcp 1540 ------- 1 0.0 1.0 80 151
- 0.336736 0 1 tcp 1540 ------- 1 0.0 1.0 80 151
r 0.337968 1 0 ack 40 ------- 1 1.0 0.0 61 132
+ 0.337968 0 1 tcp 1540 ------- 1 0.0 1.0 81 152
- 0.337968 0 1 tcp 1540 ------- 1 0.0 1.0 81 152
r 0.3392 1 0 ack 40 ------- 1 1.0 0.0 62 133
+ 0.3392 0 1 tcp 1540 ------- 1 0.0 1.0 82 153
- 0.3392 0 1 tcp 1540 ------- 1 0.0 1.0 82 153
r 0.340432 1 0 ack 40 ------- 1 1.0 0.0 63 134
+ 0.340432 0 1 tcp 1540 ------- 1 0.0 1.0 83 154
- 0.340432 0 1 tcp 1540 ------- 1 0.0 1.0 83 154
r 0.341664 1 0 ack 40 ------- 1 1.0 0.0 64 135
+ 0.341664 0 1 tcp 1540 ------- 1 0.0 1.0 84 155
- 0.341664 0 1 tcp 1540 ------- 1 0.0 1.0 84 155
r 0.342896 1 0 ack 40 ------- 1 1.0 0.0 65 136
+ 0.342896 0 1 tcp 1540 ------- 1 0.0 1.0 85 156
- 0.342896 0 1 tcp 1540 ------- 1 0.0 1.0 85 156
r 0.344128 1 0 ack 40 ------- 1 1.0 0.0 66 137
+ 0.344128 0 1 tcp 1540 ------- 1 0.0 1.0 86 157
- 0.344128 0 1 tcp 1540 ------- 1 0.0 1.0 86 157
r 0.34536 1 0 ack 40 ------- 1 1.0 0.0 67 138
+ 0.34536 0 1 tcp 1540 ------- 1 0.0 1.0 87 158
- 0.34536 0 1 tcp 1540 ------- 1 0.0 1.0 87 158
r 0.346592 1 0 ack 40 ------- 1 1.0 0.0 68 139
+ 0.346592 0 1 tcp 1540 ------- 1 0.0 1.0 88 159
- 0.346592 0 1 tcp 1540 ------- 1 0.0 1.0 88 159
r 0.347824 1 0 ack 40 ------- 1 1.0 0.0 69 141
+ 0.347824 0 1 tcp 1540 ------- 1 0.0 1.0 89 160
- 0.347824 0 1 tcp 1540 ------- 1 0.0 1.0 89 160
r 0.34888 0 1 tcp 1540 ------- 1 0.0 1.0 71 140
+ 0.34888 1 0 ack 40 ------- 1 1.0 0.0 71 161
- 0.34888 1 0 ack 40 ------- 1 1.0 0.0 71 161
r 0.349056 1 0 ack 40 ------- 1 1.0 0.0 70 143
+ 0.349056 0 1 tcp 1540 ------- 1 0.0 1.0 90 162
- 0.349056 0 1 tcp 1540 ------- 1 0.0 1.0 90 162
r 0.350112 0 1 tcp 1540 ------- 1 0.0 1.0 72 142
+ 0.350112 1 0 ack 40 ------- 1 1.0 0.0 72 163
- 0.350112 1 0 ack 40 ------- 1 1.0 0.0 72 163
r 0.351344 0 1 tcp 1540 ------- 1 0.0 1.0 73 144
+ 0.351344 1 0 ack 40 ------- 1 1.0 0.0 73 164
- 0.351344 1 0 ack 40 ------- 1 1.0 0.0 73 164
r 0.352576 0 1 tcp 1540 ------- 1 0.0 1.0 74 145
+ 0.352576 1 0 ack 40 ------- 1 1.0 0.0 74 165
- 0.352576 1 0 ack 40 ------- 1 1.0 0.0 74 165
r 0.353808 0 1 tcp 1540 ------- 1 0.0 1.0 75 146
+ 0.353808 1 0 ack 40 ------- 1 1.0 0.0 75 166
- 0.353808 1 0 ack 40 ------- 1 1.0 0.0 75 166
r 0.35504 0 1 tcp 1540 ------- 1 0.0 1.0 76 147
+ 0.35504 1 0 ack 40 ------- 1 1.0 0.0 76 167
- 0.35504 1 0 ack 40 ------- 1 1.0 0.0 76 167
r 0.356272 0 1 tcp 1540 ------- 1 0.0 1.0 77 148
+ 0.356272 1 0 ack 40 ------- 1 1.0 0.0 77 168
- 0.356272 1 0 ack 40 ------- 1 1.0 0.0 77 168
r 0.357504 0 1 tcp 1540 ------- 1 0.0 1.0 78 149
+ 0.357504 1 0 ack 40 ------- 1 1.0 0.0 78 169
- 0.357504 1 0 ack 40 ------- 1 1.0 0.0 78 169
r 0.358736 0 1 tcp 1540 ------- 1 0.0 1.0 79 150
+ 0.358736 1 0 ack 40 ------- 1 1.0 0.0 79 170
- 0.358736 1 0 ack 40 ------- 1 1.0 0.0 79 170
r 0.359968 0 1 tcp 1540 ------- 1 0.0 1.0 80 151
+ 0.359968 1 0 ack 40 ------- 1 1.0 0.0 80 171
- 0.359968 1 0 ack 40 ------- 1 1.0 0.0 80 171
r 0.3612 0 1 tcp 1540 ------- 1 0.0 1.0 81 152
+ 0.3612 1 0 ack 40 ------- 1 1.0 0.0 81 172
- 0.3612 1 0 ack 40 ------- 1 1.0 0.0 81 172
r 0.362432 0 1 tcp 1540 ------- 1 0.0 1.0 82 153
+ 0.362432 1 0 ack 40 ------- 1 1.0 0.0 82 173
- 0.362432 1 0 ack 40 ------- 1 1.0 0.0 82 173
r 0.363664 0 1 tcp 1540 ------- 1 0.0 1.0 83 154
+ 0.363664 1 0 ack 40 ------- 1 1.0 0.0 83 174
- 0.363664 1 0 ack 40 ------- 1 1.0 0.0 83 174
r 0.364896 0 1 tcp 1540 ------- 1 0.0 1.0 84 155
+ 0.364896 1 0 ack 40 ------- 1 1.0 0.0 84 175
- 0.364896 1 0 ack 40 ------- 1 1.0 0.0 84 175
r 0.366128 0 1 tcp 1540 ------- 1 0.0 1.0 85 156
+ 0.366128 1 0 ack 40 ------- 1 1.0 0.0 85 176
- 0.366128 1 0 ack 40 ------- 1 1.0 0.0 85 176
r 0.36736 0 1 tcp 1540 ------- 1 0.0 1.0 86 157
+ 0.36736 1 0 ack 40 ------- 1 1.0 0.0 86 177
- 0.36736 1 0 ack 40 ------- 1 1.0 0.0 86 177
r 0.368592 0 1 tcp 1540 ------- 1 0.0 1.0 87 158
+ 0.368592 1 0 ack 40 ------- 1 1.0 0.0 87 178
- 0.368592 1 0 ack 40 ------- 1 1.0 0.0 87 178
r 0.369824 0 1 tcp 1540 ------- 1 0.0 1.0 88 159
+ 0.369824 1 0 ack 40 ------- 1 1.0 0.0 88 179
- 0.369824 1 0 ack 40 ------- 1 1.0 0.0 88 179
r 0.370912 1 0 ack 40 ------- 1 1.0 0.0 71 161
+ 0.370912 0 1 tcp 1540 ------- 1 0.0 1.0 91 180
- 0.370912 0 1 tcp 1540 ------- 1 0.0 1.0 91 180
r 0.371056 0 1 tcp 1540 ------- 1 0.0 1.0 89 160
+ 0.371056 1 0 ack 40 ------- 1 1.0 0.0 89 181
- 0.371056 1 0 ack 40 ------- 1 1.0 0.0 89 181
r 0.372144 1 0 ack 40 ------- 1 1.0 0.0 72 163
+ 0.372144 0 1 tcp 1540 ------- 1 0.0 1.0 92 182
- 0.372144 0 1 tcp 1540 ------- 1 0.0 1.0 92 182
r 0.372288 0 1 tcp 1540 ------- 1 0.0 1.0 90 162
+ 0.372288 1 0 ack 40 ------- 1 1.0 0.0 90 183
- 0.372288 1 0 ack 40 ------- 1 1.0 0.0 90 183
r 0.373376 1 0 ack 40 ------- 1 1.0 0.0 73 164
+ 0.373376 0 1 tcp 1540 ------- 1 0.0 1.0 93 184
- 0.373376 0 1 tcp 1540 ------- 1 0.0 1.0 93 184
r 0.374608 1 0 ack 40 ------- 1 1.0 0.0 74 165
+ 0.374608 0 1 tcp 1540 ------- 1 0.0 1.0 94 185
- 0.374608 0 1 tcp 1540 ------- 1 0.0 1.0 94 185
r 0.37584 1 0 ack 40 ------- 1 1.0 0.0 75 166
+ 0.37584 0 1 tcp 1540 ------- 1 0.0 1.0 95 186
- 0.37584 0 1 tcp 1540 ------- 1 0.0 1.0 95 186
r 0.377072 1 0 ack 40 ------- 1 1.0 0.0 76 167
+ 0.377072 0 1 tcp 1540 ------- 1 0.0 1.0 96 187
- 0.377072 0 1 tcp 1540 ------- 1 0.0 1.0 96 187
r 0.378304 1 0 ack 40 ------- 1 1.0 0.0 77 168
+ 0.378304 0 1 tcp 1540 ------- 1 0.0 1.0 97 188
- 0.378304 0 1 tcp 1540 ------- 1 0.0 1.0 97 188
r 0.379536 1 0 ack 40 ------- 1 1.0 0.0 78 169
+ 0.379536 0 1 tcp 1540 ------- 1 0.0 1.0 98 189
- 0.379536 0 1 tcp 1540 ------- 1 0.0 1.0 98 189
r 0.380768 1 0 ack 40 ------- 1 1.0 0.0 79 170
+ 0.380768 0 1 tcp 1540 ------- 1 0.0 1.0 99 190
- 0.380768 0 1 tcp 1540 ------- 1 0.0 1.0 99 190
r 0.382 1 0 ack 40 ------- 1 1.0 0.0 80 171
+ 0.382 0 1 tcp 1540 ------- 1 0.0 1.0 100 191
- 0.382 0 1 tcp 1540 ------- 1 0.0 1.0 100 191
r 0.383232 1 0 ack 40 ------- 1 1.0 0.0 81 172
+ 0.383232 0 1 tcp 1540 ------- 1 0.0 1.0 101 192
- 0.383232 0 1 tcp 1540 ------- 1 0.0 1.0 101 192
r 0.384464 1 0 ack 40 ------- 1 1.0 0.0 82 173
+ 0.384464 0 1 tcp 1540 ------- 1 0.0 1.0 102 193
- 0.384464 0 1 tcp 1540 ------- 1 0.0 1.0 102 193
r 0.385696 1 0 ack 40 ------- 1 1.0 0.0 83 174
+ 0.385696 0 1 tcp 1540 ------- 1 0.0 1.0 103 194
- 0.385696 0 1 tcp 1540 ------- 1 0.0 1.0 103 194
r 0.386928 1 0 ack 40 ------- 1 1.0 0.0 84 175
+ 0.386928 0 1 tcp 1540 ------- 1 0.0 1.0 104 195
- 0.386928 0 1 tcp 1540 ------- 1 0.0 1.0 104 195
r 0.38816 1 0 ack 40 ------- 1 1.0 0.0 85 176
+ 0.38816 0 1 tcp 1540 ------- 1 0.0 1.0 105 196
- 0.38816 0 1 tcp 1540 ------- 1 0.0 1.0 105 196
r 0.389392 1 0 ack 40 ------- 1 1.0 0.0 86 177
+ 0.389392 0 1 tcp 1540 ------- 1 0.0 1.0 106 197
- 0.389392 0 1 tcp 1540 ------- 1 0.0 1.0 106 197
r 0.390624 1 0 ack 40 ------- 1 1.0 0.0 87 178
+ 0.390624 0 1 tcp 1540 ------- 1 0.0 1.0 107 198
- 0.390624 0 1 tcp 1540 ------- 1 0.0 1.0 107 198
r 0.391856 1 0 ack 40 ------- 1 1.0 0.0 88 179
+ 0.391856 0 1 tcp 1540 ------- 1 0.0 1.0 108 199
- 0.391856 0 1 tcp 1540 ------- 1 0.0 1.0 108 199
r 0.393088 1 0 ack 40 ------- 1 1.0 0.0 89 181
+ 0.393088 0 1 tcp 1540 ------- 1 0.0 1.0 109 200
- 0.393088 0 1 tcp 1540 ------- 1 0.0 1.0 109 200
r 0.394144 0 1 tcp 1540 ------- 1 0.0 1.0 91 180
+ 0.394144 1 0 ack 40 ------- 1 1.0 0.0 91 201
- 0.394144 1 0 ack 40 ------- 1 1.0 0.0 91 201
r 0.39432 1 0 ack 40 ------- 1 1.0 0.0 90 183
+ 0.39432 0 1 tcp 1540 ------- 1 0.0 1.0 110 202
- 0.39432 0 1 tcp 1540 ------- 1 0.0 1.0 110 202
r 0.395376 0 1 tcp 1540 ------- 1 0.0 1.0 92 182
+ 0.395376 1 0 ack 40 ------- 1 1.0 0.0 92 203
- 0.395376 1 0 ack 40 ------- 1 1.0 0.0 92 203
r 0.396608 0 1 tcp 1540 ------- 1 0.0 1.0 93 184
+ 0.396608 1 0 ack 40 ------- 1 1.0 0.0 93 204
- 0.396608 1 0 ack 40 ------- 1 1.0 0.0 93 204
r 0.39784 0 1 tcp 1540 ------- 1 0.0 1.0 94 185
+ 0.39784 1 0 ack 40 ------- 1 1.0 0.0 94 205
- 0.39784 1 0 ack 40 ------- 1 1.0 0.0 94 205
r 0.399072 0 1 tcp 1540 ------- 1 0.0 1.0 95 186
+ 0.399072 1 0 ack 40 ------- 1 1.0 0.0 95 206
- 0.399072 1 0 ack 40 ------- 1 1.0 0.0 95 206
r 0.400304 0 1 tcp 1540 ------- 1 0.0 1.0 96 187
+ 0.400304 1 0 ack 40 ------- 1 1.0 0.0 96 207
- 0.400304 1 0 ack 40 ------- 1 1.0 0.0 96 207
r 0.401536 0 1 tcp 1540 ------- 1 0.0 1.0 97 188
+ 0.401536 1 0 ack 40 ------- 1 1.0 0.0 97 208
- 0.401536 1 0 ack 40 ------- 1 1.0 0.0 97 208
r 0.402768 0 1 tcp 1540 ------- 1 0.0 1.0 98 189
+ 0.402768 1 0 ack 40 ------- 1 1.0 0.0 98 209
- 0.402768 1 0 ack 40 ------- 1 1.0 0.0 98 209
r 0.404 0 1 tcp 1540 ------- 1 0.0 1.0 99 190
+ 0.404 1 0 ack 40 ------- 1 1.0 0.0 99 210
- 0.404 1 0 ack 40 ------- 1 1.0 0.0 99 210
r 0.405232 0 1 tcp 1540 ------- 1 0.0 1.0 100 191
+ 0.405232 1 0 ack 40 ------- 1 1.0 0.0 100 211
- 0.405232 1 0 ack 40 ------- 1 1.0 0.0 100 211
r 0.406464 0 1 tcp 1540 ------- 1 0.0 1.0 101 192
+ 0.406464 1 0 ack 40 ------- 1 1.0 0.0 101 212
- 0.406464 1 0 ack 40 ------- 1 1.0 0.0 101 212
r 0.407696 0 1 tcp 1540 ------- 1 0.0 1.0 102 193
+ 0.407696 1 0 ack 40 ------- 1 1.0 0.0 102 213
- 0.407696 1 0 ack 40 ------- 1 1.0 0.0 102 213
r 0.408928 0 1 tcp 1540 ------- 1 0.0 1.0 103 194
+ 0.408928 1 0 ack 40 ------- 1 1.0 0.0 103 214
- 0.408928 1 0 ack 40 ------- 1 1.0 0.0 103 214
r 0.41016 0 1 tcp 1540 ------- 1 0.0 1.0 104 195
+ 0.41016 1 0 ack 40 ------- 1 1.0 0.0 104 215
- 0.41016 1 0 ack 40 ------- 1 1.0 0.0 104 215
r 0.411392 0 1 tcp 1540 ------- 1 0.0 1.0 105 196
+ 0.411392 1 0 ack 40 ------- 1 1.0 0.0 105 216
- 0.411392 1 0 ack 40 ------- 1 1.0 0.0 105 216
r 0.412624 0 1 tcp 1540 ------- 1 0.0 1.0 106 197
+ 0.412624 1 0 ack 40 ------- 1 1.0 0.0 106 217
- 0.412624 1 0 ack 40 ------- 1 1.0 0.0 106 217
r 0.413856 0 1 tcp 1540 ------- 1 0.0 1.0 107 198