+ 1.2 0 2 tcp 40 ------- 0 0.0 3.0 0 0
- 1.2 0 2 tcp 40 ------- 0 0.0 3.0 0 0
r 1.202064 0 2 tcp 40 ------- 0 0.0 3.0 0 0
+ 1.202064 2 3 tcp 40 ------- 0 0.0 3.0 0 0
- 1.202064 2 3 tcp 40 ------- 0 0.0 3.0 0 0
r 1.212277 2 3 tcp 40 ------- 0 0.0 3.0 0 0
+ 1.212277 3 2 ack 40 ------- 0 3.0 0.0 0 1
- 1.212277 3 2 ack 40 ------- 0 3.0 0.0 0 1
r 1.222491 3 2 ack 40 ------- 0 3.0 0.0 0 1
+ 1.222491 2 0 ack 40 ------- 0 3.0 0.0 0 1
- 1.222491 2 0 ack 40 ------- 0 3.0 0.0 0 1
r 1.224555 2 0 ack 40 ------- 0 3.0 0.0 0 1
+ 1.224555 0 2 tcp 1040 ------- 0 0.0 3.0 1 2
- 1.224555 0 2 tcp 1040 ------- 0 0.0 3.0 1 2
+ 1.224555 0 2 tcp 1040 ------- 0 0.0 3.0 2 3
- 1.226219 0 2 tcp 1040 ------- 0 0.0 3.0 2 3
r 1.228219 0 2 tcp 1040 ------- 0 0.0 3.0 1 2
+ 1.228219 2 3 tcp 1040 ------- 0 0.0 3.0 1 2
- 1.228219 2 3 tcp 1040 ------- 0 0.0 3.0 1 2
r 1.229883 0 2 tcp 1040 ------- 0 0.0 3.0 2 3
+ 1.229883 2 3 tcp 1040 ------- 0 0.0 3.0 2 3
- 1.233765 2 3 tcp 1040 ------- 0 0.0 3.0 2 3
r 1.243765 2 3 tcp 1040 ------- 0 0.0 3.0 1 2
+ 1.243765 3 2 ack 40 ------- 0 3.0 0.0 1 4
- 1.243765 3 2 ack 40 ------- 0 3.0 0.0 1 4
r 1.249312 2 3 tcp 1040 ------- 0 0.0 3.0 2 3
+ 1.249312 3 2 ack 40 ------- 0 3.0 0.0 2 5
- 1.249312 3 2 ack 40 ------- 0 3.0 0.0 2 5
r 1.253979 3 2 ack 40 ------- 0 3.0 0.0 1 4
+ 1.253979 2 0 ack 40 ------- 0 3.0 0.0 1 4
- 1.253979 2 0 ack 40 ------- 0 3.0 0.0 1 4
r 1.256043 2 0 ack 40 ------- 0 3.0 0.0 1 4
+ 1.256043 0 2 tcp 1040 ------- 0 0.0 3.0 3 6
- 1.256043 0 2 tcp 1040 ------- 0 0.0 3.0 3 6
+ 1.256043 0 2 tcp 1040 ------- 0 0.0 3.0 4 7
- 1.257707 0 2 tcp 1040 ------- 0 0.0 3.0 4 7
r 1.259525 3 2 ack 40 ------- 0 3.0 0.0 2 5
+ 1.259525 2 0 ack 40 ------- 0 3.0 0.0 2 5
- 1.259525 2 0 ack 40 ------- 0 3.0 0.0 2 5
r 1.259707 0 2 tcp 1040 ------- 0 0.0 3.0 3 6
+ 1.259707 2 3 tcp 1040 ------- 0 0.0 3.0 3 6
- 1.259707 2 3 tcp 1040 ------- 0 0.0 3.0 3 6
r 1.261371 0 2 tcp 1040 ------- 0 0.0 3.0 4 7
+ 1.261371 2 3 tcp 1040 ------- 0 0.0 3.0 4 7
r 1.261589 2 0 ack 40 ------- 0 3.0 0.0 2 5
+ 1.261589 0 2 tcp 1040 ------- 0 0.0 3.0 5 8
- 1.261589 0 2 tcp 1040 ------- 0 0.0 3.0 5 8
+ 1.261589 0 2 tcp 1040 ------- 0 0.0 3.0 6 9
- 1.263253 0 2 tcp 1040 ------- 0 0.0 3.0 6 9
- 1.265253 2 3 tcp 1040 ------- 0 0.0 3.0 4 7
r 1.265253 0 2 tcp 1040 ------- 0 0.0 3.0 5 8
+ 1.265253 2 3 tcp 1040 ------- 0 0.0 3.0 5 8
r 1.266917 0 2 tcp 1040 ------- 0 0.0 3.0 6 9
+ 1.266917 2 3 tcp 1040 ------- 0 0.0 3.0 6 9
- 1.2708 2 3 tcp 1040 ------- 0 0.0 3.0 5 8
r 1.275253 2 3 tcp 1040 ------- 0 0.0 3.0 3 6
+ 1.275253 3 2 ack 40 ------- 0 3.0 0.0 3 10
- 1.275253 3 2 ack 40 ------- 0 3.0 0.0 3 10
- 1.276347 2 3 tcp 1040 ------- 0 0.0 3.0 6 9
r 1.2808 2 3 tcp 1040 ------- 0 0.0 3.0 4 7
+ 1.2808 3 2 ack 40 ------- 0 3.0 0.0 4 11
- 1.2808 3 2 ack 40 ------- 0 3.0 0.0 4 11
r 1.285467 3 2 ack 40 ------- 0 3.0 0.0 3 10
+ 1.285467 2 0 ack 40 ------- 0 3.0 0.0 3 10
- 1.285467 2 0 ack 40 ------- 0 3.0 0.0 3 10
r 1.286347 2 3 tcp 1040 ------- 0 0.0 3.0 5 8
+ 1.286347 3 2 ack 40 ------- 0 3.0 0.0 5 12
- 1.286347 3 2 ack 40 ------- 0 3.0 0.0 5 12
r 1.287531 2 0 ack 40 ------- 0 3.0 0.0 3 10
+ 1.287531 0 2 tcp 1040 ------- 0 0.0 3.0 7 13
- 1.287531 0 2 tcp 1040 ------- 0 0.0 3.0 7 13
+ 1.287531 0 2 tcp 1040 ------- 0 0.0 3.0 8 14
- 1.289195 0 2 tcp 1040 ------- 0 0.0 3.0 8 14
r 1.291013 3 2 ack 40 ------- 0 3.0 0.0 4 11
+ 1.291013 2 0 ack 40 ------- 0 3.0 0.0 4 11
- 1.291013 2 0 ack 40 ------- 0 3.0 0.0 4 11
r 1.291195 0 2 tcp 1040 ------- 0 0.0 3.0 7 13
+ 1.291195 2 3 tcp 1040 ------- 0 0.0 3.0 7 13
- 1.291195 2 3 tcp 1040 ------- 0 0.0 3.0 7 13
r 1.291893 2 3 tcp 1040 ------- 0 0.0 3.0 6 9
+ 1.291893 3 2 ack 40 ------- 0 3.0 0.0 6 15
- 1.291893 3 2 ack 40 ------- 0 3.0 0.0 6 15
r 1.292859 0 2 tcp 1040 ------- 0 0.0 3.0 8 14
+ 1.292859 2 3 tcp 1040 ------- 0 0.0 3.0 8 14
r 1.293077 2 0 ack 40 ------- 0 3.0 0.0 4 11
+ 1.293077 0 2 tcp 1040 ------- 0 0.0 3.0 9 16
- 1.293077 0 2 tcp 1040 ------- 0 0.0 3.0 9 16
+ 1.293077 0 2 tcp 1040 ------- 0 0.0 3.0 10 17
- 1.294741 0 2 tcp 1040 ------- 0 0.0 3.0 10 17
r 1.29656 3 2 ack 40 ------- 0 3.0 0.0 5 12
+ 1.29656 2 0 ack 40 ------- 0 3.0 0.0 5 12
- 1.29656 2 0 ack 40 ------- 0 3.0 0.0 5 12
- 1.296741 2 3 tcp 1040 ------- 0 0.0 3.0 8 14
r 1.296741 0 2 tcp 1040 ------- 0 0.0 3.0 9 16
+ 1.296741 2 3 tcp 1040 ------- 0 0.0 3.0 9 16
r 1.298405 0 2 tcp 1040 ------- 0 0.0 3.0 10 17
+ 1.298405 2 3 tcp 1040 ------- 0 0.0 3.0 10 17
r 1.298624 2 0 ack 40 ------- 0 3.0 0.0 5 12
+ 1.298624 0 2 tcp 1040 ------- 0 0.0 3.0 11 18
- 1.298624 0 2 tcp 1040 ------- 0 0.0 3.0 11 18
+ 1.298624 0 2 tcp 1040 ------- 0 0.0 3.0 12 19
- 1.300288 0 2 tcp 1040 ------- 0 0.0 3.0 12 19
r 1.302107 3 2 ack 40 ------- 0 3.0 0.0 6 15
+ 1.302107 2 0 ack 40 ------- 0 3.0 0.0 6 15
- 1.302107 2 0 ack 40 ------- 0 3.0 0.0 6 15
- 1.302288 2 3 tcp 1040 ------- 0 0.0 3.0 9 16
r 1.302288 0 2 tcp 1040 ------- 0 0.0 3.0 11 18
+ 1.302288 2 3 tcp 1040 ------- 0 0.0 3.0 11 18
r 1.303952 0 2 tcp 1040 ------- 0 0.0 3.0 12 19
+ 1.303952 2 3 tcp 1040 ------- 0 0.0 3.0 12 19
r 1.304171 2 0 ack 40 ------- 0 3.0 0.0 6 15
+ 1.304171 0 2 tcp 1040 ------- 0 0.0 3.0 13 20
- 1.304171 0 2 tcp 1040 ------- 0 0.0 3.0 13 20
+ 1.304171 0 2 tcp 1040 ------- 0 0.0 3.0 14 21
- 1.305835 0 2 tcp 1040 ------- 0 0.0 3.0 14 21
r 1.306741 2 3 tcp 1040 ------- 0 0.0 3.0 7 13
+ 1.306741 3 2 ack 40 ------- 0 3.0 0.0 7 22
- 1.306741 3 2 ack 40 ------- 0 3.0 0.0 7 22
- 1.307835 2 3 tcp 1040 ------- 0 0.0 3.0 10 17
r 1.307835 0 2 tcp 1040 ------- 0 0.0 3.0 13 20
+ 1.307835 2 3 tcp 1040 ------- 0 0.0 3.0 13 20
r 1.309499 0 2 tcp 1040 ------- 0 0.0 3.0 14 21
+ 1.309499 2 3 tcp 1040 ------- 0 0.0 3.0 14 21
r 1.312288 2 3 tcp 1040 ------- 0 0.0 3.0 8 14
+ 1.312288 3 2 ack 40 ------- 0 3.0 0.0 8 23
- 1.312288 3 2 ack 40 ------- 0 3.0 0.0 8 23
- 1.313381 2 3 tcp 1040 ------- 0 0.0 3.0 11 18
r 1.316955 3 2 ack 40 ------- 0 3.0 0.0 7 22
+ 1.316955 2 0 ack 40 ------- 0 3.0 0.0 7 22
- 1.316955 2 0 ack 40 ------- 0 3.0 0.0 7 22
r 1.317835 2 3 tcp 1040 ------- 0 0.0 3.0 9 16
+ 1.317835 3 2 ack 40 ------- 0 3.0 0.0 9 24
- 1.317835 3 2 ack 40 ------- 0 3.0 0.0 9 24
- 1.318928 2 3 tcp 1040 ------- 0 0.0 3.0 12 19
r 1.319019 2 0 ack 40 ------- 0 3.0 0.0 7 22
+ 1.319019 0 2 tcp 1040 ------- 0 0.0 3.0 15 25
- 1.319019 0 2 tcp 1040 ------- 0 0.0 3.0 15 25
+ 1.319019 0 2 tcp 1040 ------- 0 0.0 3.0 16 26
- 1.320683 0 2 tcp 1040 ------- 0 0.0 3.0 16 26
r 1.322501 3 2 ack 40 ------- 0 3.0 0.0 8 23
+ 1.322501 2 0 ack 40 ------- 0 3.0 0.0 8 23
- 1.322501 2 0 ack 40 ------- 0 3.0 0.0 8 23
r 1.322683 0 2 tcp 1040 ------- 0 0.0 3.0 15 25
+ 1.322683 2 3 tcp 1040 ------- 0 0.0 3.0 15 25
r 1.323381 2 3 tcp 1040 ------- 0 0.0 3.0 10 17
+ 1.323381 3 2 ack 40 ------- 0 3.0 0.0 10 27
- 1.323381 3 2 ack 40 ------- 0 3.0 0.0 10 27
r 1.324347 0 2 tcp 1040 ------- 0 0.0 3.0 16 26
+ 1.324347 2 3 tcp 1040 ------- 0 0.0 3.0 16 26
- 1.324475 2 3 tcp 1040 ------- 0 0.0 3.0 13 20
r 1.324565 2 0 ack 40 ------- 0 3.0 0.0 8 23
+ 1.324565 0 2 tcp 1040 ------- 0 0.0 3.0 17 28
- 1.324565 0 2 tcp 1040 ------- 0 0.0 3.0 17 28
+ 1.324565 0 2 tcp 1040 ------- 0 0.0 3.0 18 29
- 1.326229 0 2 tcp 1040 ------- 0 0.0 3.0 18 29
r 1.328048 3 2 ack 40 ------- 0 3.0 0.0 9 24
+ 1.328048 2 0 ack 40 ------- 0 3.0 0.0 9 24
- 1.328048 2 0 ack 40 ------- 0 3.0 0.0 9 24
r 1.328229 0 2 tcp 1040 ------- 0 0.0 3.0 17 28
+ 1.328229 2 3 tcp 1040 ------- 0 0.0 3.0 17 28
r 1.328928 2 3 tcp 1040 ------- 0 0.0 3.0 11 18
+ 1.328928 3 2 ack 40 ------- 0 3.0 0.0 11 30
- 1.328928 3 2 ack 40 ------- 0 3.0 0.0 11 30
r 1.329893 0 2 tcp 1040 ------- 0 0.0 3.0 18 29
+ 1.329893 2 3 tcp 1040 ------- 0 0.0 3.0 18 29
- 1.330021 2 3 tcp 1040 ------- 0 0.0 3.0 14 21
r 1.330112 2 0 ack 40 ------- 0 3.0 0.0 9 24
+ 1.330112 0 2 tcp 1040 ------- 0 0.0 3.0 19 31
- 1.330112 0 2 tcp 1040 ------- 0 0.0 3.0 19 31
+ 1.330112 0 2 tcp 1040 ------- 0 0.0 3.0 20 32
- 1.331776 0 2 tcp 1040 ------- 0 0.0 3.0 20 32
r 1.333595 3 2 ack 40 ------- 0 3.0 0.0 10 27
+ 1.333595 2 0 ack 40 ------- 0 3.0 0.0 10 27
- 1.333595 2 0 ack 40 ------- 0 3.0 0.0 10 27
r 1.333776 0 2 tcp 1040 ------- 0 0.0 3.0 19 31
+ 1.333776 2 3 tcp 1040 ------- 0 0.0 3.0 19 31
r 1.334475 2 3 tcp 1040 ------- 0 0.0 3.0 12 19
+ 1.334475 3 2 ack 40 ------- 0 3.0 0.0 12 33
- 1.334475 3 2 ack 40 ------- 0 3.0 0.0 12 33
r 1.33544 0 2 tcp 1040 ------- 0 0.0 3.0 20 32
+ 1.33544 2 3 tcp 1040 ------- 0 0.0 3.0 20 32
- 1.335568 2 3 tcp 1040 ------- 0 0.0 3.0 15 25
r 1.335659 2 0 ack 40 ------- 0 3.0 0.0 10 27
+ 1.335659 0 2 tcp 1040 ------- 0 0.0 3.0 21 34
- 1.335659 0 2 tcp 1040 ------- 0 0.0 3.0 21 34
+ 1.335659 0 2 tcp 1040 ------- 0 0.0 3.0 22 35
- 1.337323 0 2 tcp 1040 ------- 0 0.0 3.0 22 35
r 1.339141 3 2 ack 40 ------- 0 3.0 0.0 11 30
+ 1.339141 2 0 ack 40 ------- 0 3.0 0.0 11 30
- 1.339141 2 0 ack 40 ------- 0 3.0 0.0 11 30
r 1.339323 0 2 tcp 1040 ------- 0 0.0 3.0 21 34
+ 1.339323 2 3 tcp 1040 ------- 0 0.0 3.0 21 34
r 1.340021 2 3 tcp 1040 ------- 0 0.0 3.0 13 20
+ 1.340021 3 2 ack 40 ------- 0 3.0 0.0 13 36
- 1.340021 3 2 ack 40 ------- 0 3.0 0.0 13 36
r 1.340987 0 2 tcp 1040 ------- 0 0.0 3.0 22 35
+ 1.340987 2 3 tcp 1040 ------- 0 0.0 3.0 22 35
- 1.341115 2 3 tcp 1040 ------- 0 0.0 3.0 16 26
r 1.341205 2 0 ack 40 ------- 0 3.0 0.0 11 30
+ 1.341205 0 2 tcp 1040 ------- 0 0.0 3.0 23 37
- 1.341205 0 2 tcp 1040 ------- 0 0.0 3.0 23 37
+ 1.341205 0 2 tcp 1040 ------- 0 0.0 3.0 24 38
- 1.342869 0 2 tcp 1040 ------- 0 0.0 3.0 24 38
r 1.344688 3 2 ack 40 ------- 0 3.0 0.0 12 33
+ 1.344688 2 0 ack 40 ------- 0 3.0 0.0 12 33
- 1.344688 2 0 ack 40 ------- 0 3.0 0.0 12 33
r 1.344869 0 2 tcp 1040 ------- 0 0.0 3.0 23 37
+ 1.344869 2 3 tcp 1040 ------- 0 0.0 3.0 23 37
r 1.345568 2 3 tcp 1040 ------- 0 0.0 3.0 14 21
+ 1.345568 3 2 ack 40 ------- 0 3.0 0.0 14 39
- 1.345568 3 2 ack 40 ------- 0 3.0 0.0 14 39
r 1.346533 0 2 tcp 1040 ------- 0 0.0 3.0 24 38
+ 1.346533 2 3 tcp 1040 ------- 0 0.0 3.0 24 38
- 1.346661 2 3 tcp 1040 ------- 0 0.0 3.0 17 28
r 1.346752 2 0 ack 40 ------- 0 3.0 0.0 12 33
+ 1.346752 0 2 tcp 1040 ------- 0 0.0 3.0 25 40
- 1.346752 0 2 tcp 1040 ------- 0 0.0 3.0 25 40
+ 1.346752 0 2 tcp 1040 ------- 0 0.0 3.0 26 41
- 1.348416 0 2 tcp 1040 ------- 0 0.0 3.0 26 41
r 1.350235 3 2 ack 40 ------- 0 3.0 0.0 13 36
+ 1.350235 2 0 ack 40 ------- 0 3.0 0.0 13 36
- 1.350235 2 0 ack 40 ------- 0 3.0 0.0 13 36
r 1.350416 0 2 tcp 1040 ------- 0 0.0 3.0 25 40
+ 1.350416 2 3 tcp 1040 ------- 0 0.0 3.0 25 40
r 1.351115 2 3 tcp 1040 ------- 0 0.0 3.0 15 25
+ 1.351115 3 2 ack 40 ------- 0 3.0 0.0 15 42
- 1.351115 3 2 ack 40 ------- 0 3.0 0.0 15 42
r 1.35208 0 2 tcp 1040 ------- 0 0.0 3.0 26 41
+ 1.35208 2 3 tcp 1040 ------- 0 0.0 3.0 26 41
- 1.352208 2 3 tcp 1040 ------- 0 0.0 3.0 18 29
r 1.352299 2 0 ack 40 ------- 0 3.0 0.0 13 36
+ 1.352299 0 2 tcp 1040 ------- 0 0.0 3.0 27 43
- 1.352299 0 2 tcp 1040 ------- 0 0.0 3.0 27 43
+ 1.352299 0 2 tcp 1040 ------- 0 0.0 3.0 28 44
- 1.353963 0 2 tcp 1040 ------- 0 0.0 3.0 28 44
r 1.355781 3 2 ack 40 ------- 0 3.0 0.0 14 39
+ 1.355781 2 0 ack 40 ------- 0 3.0 0.0 14 39
- 1.355781 2 0 ack 40 ------- 0 3.0 0.0 14 39
r 1.355963 0 2 tcp 1040 ------- 0 0.0 3.0 27 43
+ 1.355963 2 3 tcp 1040 ------- 0 0.0 3.0 27 43
r 1.356661 2 3 tcp 1040 ------- 0 0.0 3.0 16 26
+ 1.356661 3 2 ack 40 ------- 0 3.0 0.0 16 45
- 1.356661 3 2 ack 40 ------- 0 3.0 0.0 16 45
r 1.357627 0 2 tcp 1040 ------- 0 0.0 3.0 28 44
+ 1.357627 2 3 tcp 1040 ------- 0 0.0 3.0 28 44
- 1.357755 2 3 tcp 1040 ------- 0 0.0 3.0 19 31
r 1.357845 2 0 ack 40 ------- 0 3.0 0.0 14 39
+ 1.357845 0 2 tcp 1040 ------- 0 0.0 3.0 29 46
- 1.357845 0 2 tcp 1040 ------- 0 0.0 3.0 29 46
+ 1.357845 0 2 tcp 1040 ------- 0 0.0 3.0 30 47
- 1.359509 0 2 tcp 1040 ------- 0 0.0 3.0 30 47
r 1.361328 3 2 ack 40 ------- 0 3.0 0.0 15 42
+ 1.361328 2 0 ack 40 ------- 0 3.0 0.0 15 42
- 1.361328 2 0 ack 40 ------- 0 3.0 0.0 15 42
r 1.361509 0 2 tcp 1040 ------- 0 0.0 3.0 29 46
+ 1.361509 2 3 tcp 1040 ------- 0 0.0 3.0 29 46
r 1.362208 2 3 tcp 1040 ------- 0 0.0 3.0 17 28
+ 1.362208 3 2 ack 40 ------- 0 3.0 0.0 17 48
- 1.362208 3 2 ack 40 ------- 0 3.0 0.0 17 48
r 1.363173 0 2 tcp 1040 ------- 0 0.0 3.0 30 47
+ 1.363173 2 3 tcp 1040 ------- 0 0.0 3.0 30 47
- 1.363301 2 3 tcp 1040 ------- 0 0.0 3.0 20 32
r 1.363392 2 0 ack 40 ------- 0 3.0 0.0 15 42
+ 1.363392 0 2 tcp 1040 ------- 0 0.0 3.0 31 49
- 1.363392 0 2 tcp 1040 ------- 0 0.0 3.0 31 49
+ 1.363392 0 2 tcp 1040 ------- 0 0.0 3.0 32 50
- 1.365056 0 2 tcp 1040 ------- 0 0.0 3.0 32 50
r 1.366875 3 2 ack 40 ------- 0 3.0 0.0 16 45
+ 1.366875 2 0 ack 40 ------- 0 3.0 0.0 16 45
- 1.366875 2 0 ack 40 ------- 0 3.0 0.0 16 45
r 1.367056 0 2 tcp 1040 ------- 0 0.0 3.0 31 49
+ 1.367056 2 3 tcp 1040 ------- 0 0.0 3.0 31 49
r 1.367755 2 3 tcp 1040 ------- 0 0.0 3.0 18 29
+ 1.367755 3 2 ack 40 ------- 0 3.0 0.0 18 51
- 1.367755 3 2 ack 40 ------- 0 3.0 0.0 18 51
r 1.36872 0 2 tcp 1040 ------- 0 0.0 3.0 32 50
+ 1.36872 2 3 tcp 1040 ------- 0 0.0 3.0 32 50
- 1.368848 2 3 tcp 1040 ------- 0 0.0 3.0 21 34
r 1.368939 2 0 ack 40 ------- 0 3.0 0.0 16 45
+ 1.368939 0 2 tcp 1040 ------- 0 0.0 3.0 33 52
- 1.368939 0 2 tcp 1040 ------- 0 0.0 3.0 33 52
+ 1.368939 0 2 tcp 1040 ------- 0 0.0 3.0 34 53
- 1.370603 0 2 tcp 1040 ------- 0 0.0 3.0 34 53
r 1.372421 3 2 ack 40 ------- 0 3.0 0.0 17 48
+ 1.372421 2 0 ack 40 ------- 0 3.0 0.0 17 48
- 1.372421 2 0 ack 40 ------- 0 3.0 0.0 17 48
r 1.372603 0 2 tcp 1040 ------- 0 0.0 3.0 33 52
+ 1.372603 2 3 tcp 1040 ------- 0 0.0 3.0 33 52
r 1.373301 2 3 tcp 1040 ------- 0 0.0 3.0 19 31
+ 1.373301 3 2 ack 40 ------- 0 3.0 0.0 19 54
- 1.373301 3 2 ack 40 ------- 0 3.0 0.0 19 54
r 1.374267 0 2 tcp 1040 ------- 0 0.0 3.0 34 53
+ 1.374267 2 3 tcp 1040 ------- 0 0.0 3.0 34 53
- 1.374395 2 3 tcp 1040 ------- 0 0.0 3.0 22 35
r 1.374485 2 0 ack 40 ------- 0 3.0 0.0 17 48
+ 1.374485 0 2 tcp 1040 ------- 0 0.0 3.0 35 55
- 1.374485 0 2 tcp 1040 ------- 0 0.0 3.0 35 55
+ 1.374485 0 2 tcp 1040 ------- 0 0.0 3.0 36 56
- 1.376149 0 2 tcp 1040 ------- 0 0.0 3.0 36 56
r 1.377968 3 2 ack 40 ------- 0 3.0 0.0 18 51
+ 1.377968 2 0 ack 40 ------- 0 3.0 0.0 18 51
- 1.377968 2 0 ack 40 ------- 0 3.0 0.0 18 51
r 1.378149 0 2 tcp 1040 ------- 0 0.0 3.0 35 55
+ 1.378149 2 3 tcp 1040 ------- 0 0.0 3.0 35 55
r 1.378848 2 3 tcp 1040 ------- 0 0.0 3.0 20 32
+ 1.378848 3 2 ack 40 ------- 0 3.0 0.0 20 57
- 1.378848 3 2 ack 40 ------- 0 3.0 0.0 20 57
r 1.379813 0 2 tcp 1040 ------- 0 0.0 3.0 36 56
+ 1.379813 2 3 tcp 1040 ------- 0 0.0 3.0 36 56
- 1.379941 2 3 tcp 1040 ------- 0 0.0 3.0 23 37
r 1.380032 2 0 ack 40 ------- 0 3.0 0.0 18 51
+ 1.380032 0 2 tcp 1040 ------- 0 0.0 3.0 37 58
- 1.380032 0 2 tcp 1040 ------- 0 0.0 3.0 37 58
+ 1.380032 0 2 tcp 1040 ------- 0 0.0 3.0 38 59
- 1.381696 0 2 tcp 1040 ------- 0 0.0 3.0 38 59
r 1.383515 3 2 ack 40 ------- 0 3.0 0.0 19 54
+ 1.383515 2 0 ack 40 ------- 0 3.0 0.0 19 54
- 1.383515 2 0 ack 40 ------- 0 3.0 0.0 19 54
r 1.383696 0 2 tcp 1040 ------- 0 0.0 3.0 37 58
+ 1.383696 2 3 tcp 1040 ------- 0 0.0 3.0 37 58
r 1.384395 2 3 tcp 1040 ------- 0 0.0 3.0 21 34
+ 1.384395 3 2 ack 40 ------- 0 3.0 0.0 21 60
- 1.384395 3 2 ack 40 ------- 0 3.0 0.0 21 60
r 1.38536 0 2 tcp 1040 ------- 0 0.0 3.0 38 59
+ 1.38536 2 3 tcp 1040 ------- 0 0.0 3.0 38 59
- 1.385488 2 3 tcp 1040 ------- 0 0.0 3.0 24 38
r 1.385579 2 0 ack 40 ------- 0 3.0 0.0 19 54
+ 1.385579 0 2 tcp 1040 ------- 0 0.0 3.0 39 61
- 1.385579 0 2 tcp 1040 ------- 0 0.0 3.0 39 61
r 1.389061 3 2 ack 40 ------- 0 3.0 0.0 20 57
+ 1.389061 2 0 ack 40 ------- 0 3.0 0.0 20 57
- 1.389061 2 0 ack 40 ------- 0 3.0 0.0 20 57
r 1.389243 0 2 tcp 1040 ------- 0 0.0 3.0 39 61
+ 1.389243 2 3 tcp 1040 ------- 0 0.0 3.0 39 61
r 1.389941 2 3 tcp 1040 ------- 0 0.0 3.0 22 35
+ 1.389941 3 2 ack 40 ------- 0 3.0 0.0 22 62
- 1.389941 3 2 ack 40 ------- 0 3.0 0.0 22 62
- 1.391035 2 3 tcp 1040 ------- 0 0.0 3.0 25 40
r 1.391125 2 0 ack 40 ------- 0 3.0 0.0 20 57
+ 1.391125 0 2 tcp 1040 ------- 0 0.0 3.0 40 63
- 1.391125 0 2 tcp 1040 ------- 0 0.0 3.0 40 63
r 1.394608 3 2 ack 40 ------- 0 3.0 0.0 21 60
+ 1.394608 2 0 ack 40 ------- 0 3.0 0.0 21 60
- 1.394608 2 0 ack 40 ------- 0 3.0 0.0 21 60
r 1.394789 0 2 tcp 1040 ------- 0 0.0 3.0 40 63
+ 1.394789 2 3 tcp 1040 ------- 0 0.0 3.0 40 63
r 1.395488 2 3 tcp 1040 ------- 0 0.0 3.0 23 37
+ 1.395488 3 2 ack 40 ------- 0 3.0 0.0 23 64
- 1.395488 3 2 ack 40 ------- 0 3.0 0.0 23 64
- 1.396581 2 3 tcp 1040 ------- 0 0.0 3.0 26 41
r 1.396672 2 0 ack 40 ------- 0 3.0 0.0 21 60
+ 1.396672 0 2 tcp 1040 ------- 0 0.0 3.0 41 65
- 1.396672 0 2 tcp 1040 ------- 0 0.0 3.0 41 65
r 1.400155 3 2 ack 40 ------- 0 3.0 0.0 22 62
+ 1.400155 2 0 ack 40 ------- 0 3.0 0.0 22 62
- 1.400155 2 0 ack 40 ------- 0 3.0 0.0 22 62
r 1.400336 0 2 tcp 1040 ------- 0 0.0 3.0 41 65
+ 1.400336 2 3 tcp 1040 ------- 0 0.0 3.0 41 65
r 1.401035 2 3 tcp 1040 ------- 0 0.0 3.0 24 38
+ 1.401035 3 2 ack 40 ------- 0 3.0 0.0 24 66
- 1.401035 3 2 ack 40 ------- 0 3.0 0.0 24 66
- 1.402128 2 3 tcp 1040 ------- 0 0.0 3.0 27 43
r 1.402219 2 0 ack 40 ------- 0 3.0 0.0 22 62
+ 1.402219 0 2 tcp 1040 ------- 0 0.0 3.0 42 67
- 1.402219 0 2 tcp 1040 ------- 0 0.0 3.0 42 67
r 1.405701 3 2 ack 40 ------- 0 3.0 0.0 23 64
+ 1.405701 2 0 ack 40 ------- 0 3.0 0.0 23 64
- 1.405701 2 0 ack 40 ------- 0 3.0 0.0 23 64
r 1.405883 0 2 tcp 1040 ------- 0 0.0 3.0 42 67
+ 1.405883 2 3 tcp 1040 ------- 0 0.0 3.0 42 67
r 1.406581 2 3 tcp 1040 ------- 0 0.0 3.0 25 40
+ 1.406581 3 2 ack 40 ------- 0 3.0 0.0 25 68
- 1.406581 3 2 ack 40 ------- 0 3.0 0.0 25 68
- 1.407675 2 3 tcp 1040 ------- 0 0.0 3.0 28 44
r 1.407765 2 0 ack 40 ------- 0 3.0 0.0 23 64
+ 1.407765 0 2 tcp 1040 ------- 0 0.0 3.0 43 69
- 1.407765 0 2 tcp 1040 ------- 0 0.0 3.0 43 69
r 1.411248 3 2 ack 40 ------- 0 3.0 0.0 24 66
+ 1.411248 2 0 ack 40 ------- 0 3.0 0.0 24 66
- 1.411248 2 0 ack 40 ------- 0 3.0 0.0 24 66
r 1.411429 0 2 tcp 1040 ------- 0 0.0 3.0 43 69
+ 1.411429 2 3 tcp 1040 ------- 0 0.0 3.0 43 69
r 1.412128 2 3 tcp 1040 ------- 0 0.0 3.0 26 41
+ 1.412128 3 2 ack 40 ------- 0 3.0 0.0 26 70
- 1.412128 3 2 ack 40 ------- 0 3.0 0.0 26 70
- 1.413221 2 3 tcp 1040 ------- 0 0.0 3.0 29 46
r 1.413312 2 0 ack 40 ------- 0 3.0 0.0 24 66
+ 1.413312 0 2 tcp 1040 ------- 0 0.0 3.0 44 71
- 1.413312 0 2 tcp 1040 ------- 0 0.0 3.0 44 71
r 1.416795 3 2 ack 40 ------- 0 3.0 0.0 25 68
+ 1.416795 2 0 ack 40 ------- 0 3.0 0.0 25 68
- 1.416795 2 0 ack 40 ------- 0 3.0 0.0 25 68
r 1.416976 0 2 tcp 1040 ------- 0 0.0 3.0 44 71
+ 1.416976 2 3 tcp 1040 ------- 0 0.0 3.0 44 71
r 1.417675 2 3 tcp 1040 ------- 0 0.0 3.0 27 43
+ 1.417675 3 2 ack 40 ------- 0 3.0 0.0 27 72
- 1.417675 3 2 ack 40 ------- 0 3.0 0.0 27 72
- 1.418768 2 3 tcp 1040 ------- 0 0.0 3.0 30 47
r 1.418859 2 0 ack 40 ------- 0 3.0 0.0 25 68
+ 1.418859 0 2 tcp 1040 ------- 0 0.0 3.0 45 73
- 1.418859 0 2 tcp 1040 ------- 0 0.0 3.0 45 73
r 1.422341 3 2 ack 40 ------- 0 3.0 0.0 26 70
+ 1.422341 2 0 ack 40 ------- 0 3.0 0.0 26 70
- 1.422341 2 0 ack 40 ------- 0 3.0 0.0 26 70
r 1.422523 0 2 tcp 1040 ------- 0 0.0 3.0 45 73
+ 1.422523 2 3 tcp 1040 ------- 0 0.0 3.0 45 73
r 1.423221 2 3 tcp 1040 ------- 0 0.0 3.0 28 44
+ 1.423221 3 2 ack 40 ------- 0 3.0 0.0 28 74
- 1.423221 3 2 ack 40 ------- 0 3.0 0.0 28 74
- 1.424315 2 3 tcp 1040 ------- 0 0.0 3.0 31 49
r 1.424405 2 0 ack 40 ------- 0 3.0 0.0 26 70
+ 1.424405 0 2 tcp 1040 ------- 0 0.0 3.0 46 75
- 1.424405 0 2 tcp 1040 ------- 0 0.0 3.0 46 75
r 1.427888 3 2 ack 40 ------- 0 3.0 0.0 27 72
+ 1.427888 2 0 ack 40 ------- 0 3.0 0.0 27 72
- 1.427888 2 0 ack 40 ------- 0 3.0 0.0 27 72
r 1.428069 0 2 tcp 1040 ------- 0 0.0 3.0 46 75
+ 1.428069 2 3 tcp 1040 ------- 0 0.0 3.0 46 75
r 1.428768 2 3 tcp 1040 ------- 0 0.0 3.0 29 46
+ 1.428768 3 2 ack 40 ------- 0 3.0 0.0 29 76
- 1.428768 3 2 ack 40 ------- 0 3.0 0.0 29 76
- 1.429861 2 3 tcp 1040 ------- 0 0.0 3.0 32 50
r 1.429952 2 0 ack 40 ------- 0 3.0 0.0 27 72
+ 1.429952 0 2 tcp 1040 ------- 0 0.0 3.0 47 77
- 1.429952 0 2 tcp 1040 ------- 0 0.0 3.0 47 77
r 1.433435 3 2 ack 40 ------- 0 3.0 0.0 28 74
+ 1.433435 2 0 ack 40 ------- 0 3.0 0.0 28 74
- 1.433435 2 0 ack 40 ------- 0 3.0 0.0 28 74
r 1.433616 0 2 tcp 1040 ------- 0 0.0 3.0 47 77
+ 1.433616 2 3 tcp 1040 ------- 0 0.0 3.0 47 77
r 1.434315 2 3 tcp 1040 ------- 0 0.0 3.0 30 47
+ 1.434315 3 2 ack 40 ------- 0 3.0 0.0 30 78
- 1.434315 3 2 ack 40 ------- 0 3.0 0.0 30 78
- 1.435408 2 3 tcp 1040 ------- 0 0.0 3.0 33 52
r 1.435499 2 0 ack 40 ------- 0 3.0 0.0 28 74
+ 1.435499 0 2 tcp 1040 ------- 0 0.0 3.0 48 79
- 1.435499 0 2 tcp 1040 ------- 0 0.0 3.0 48 79
r 1.438981 3 2 ack 40 ------- 0 3.0 0.0 29 76
+ 1.438981 2 0 ack 40 ------- 0 3.0 0.0 29 76
- 1.438981 2 0 ack 40 ------- 0 3.0 0.0 29 76
r 1.439163 0 2 tcp 1040 ------- 0 0.0 3.0 48 79
+ 1.439163 2 3 tcp 1040 ------- 0 0.0 3.0 48 79
r 1.439861 2 3 tcp 1040 ------- 0 0.0 3.0 31 49
+ 1.439861 3 2 ack 40 ------- 0 3.0 0.0 31 80
- 1.439861 3 2 ack 40 ------- 0 3.0 0.0 31 80
- 1.440955 2 3 tcp 1040 ------- 0 0.0 3.0 34 53
r 1.441045 2 0 ack 40 ------- 0 3.0 0.0 29 76
+ 1.441045 0 2 tcp 1040 ------- 0 0.0 3.0 49 81
- 1.441045 0 2 tcp 1040 ------- 0 0.0 3.0 49 81
r 1.444528 3 2 ack 40 ------- 0 3.0 0.0 30 78
+ 1.444528 2 0 ack 40 ------- 0 3.0 0.0 30 78
- 1.444528 2 0 ack 40 ------- 0 3.0 0.0 30 78
r 1.444709 0 2 tcp 1040 ------- 0 0.0 3.0 49 81
+ 1.444709 2 3 tcp 1040 ------- 0 0.0 3.0 49 81
r 1.445408 2 3 tcp 1040 ------- 0 0.0 3.0 32 50
+ 1.445408 3 2 ack 40 ------- 0 3.0 0.0 32 82
- 1.445408 3 2 ack 40 ------- 0 3.0 0.0 32 82
- 1.446501 2 3 tcp 1040 ------- 0 0.0 3.0 35 55
r 1.446592 2 0 ack 40 ------- 0 3.0 0.0 30 78
+ 1.446592 0 2 tcp 1040 ------- 0 0.0 3.0 50 83
- 1.446592 0 2 tcp 1040 ------- 0 0.0 3.0 50 83
r 1.450075 3 2 ack 40 ------- 0 3.0 0.0 31 80
+ 1.450075 2 0 ack 40 ------- 0 3.0 0.0 31 80
- 1.450075 2 0 ack 40 ------- 0 3.0 0.0 31 80
r 1.450256 0 2 tcp 1040 ------- 0 0.0 3.0 50 83
+ 1.450256 2 3 tcp 1040 ------- 0 0.0 3.0 50 83
r 1.450955 2 3 tcp 1040 ------- 0 0.0 3.0 33 52
+ 1.450955 3 2 ack 40 ------- 0 3.0 0.0 33 84
- 1.450955 3 2 ack 40 ------- 0 3.0 0.0 33 84
- 1.452048 2 3 tcp 1040 ------- 0 0.0 3.0 36 56
r 1.452139 2 0 ack 40 ------- 0 3.0 0.0 31 80
+ 1.452139 0 2 tcp 1040 ------- 0 0.0 3.0 51 85
- 1.452139 0 2 tcp 1040 ------- 0 0.0 3.0 51 85
r 1.455621 3 2 ack 40 ------- 0 3.0 0.0 32 82
+ 1.455621 2 0 ack 40 ------- 0 3.0 0.0 32 82
- 1.455621 2 0 ack 40 ------- 0 3.0 0.0 32 82
r 1.455803 0 2 tcp 1040 ------- 0 0.0 3.0 51 85
+ 1.455803 2 3 tcp 1040 ------- 0 0.0 3.0 51 85
r 1.456501 2 3 tcp 1040 ------- 0 0.0 3.0 34 53
+ 1.456501 3 2 ack 40 ------- 0 3.0 0.0 34 86
- 1.456501 3 2 ack 40 ------- 0 3.0 0.0 34 86
- 1.457595 2 3 tcp 1040 ------- 0 0.0 3.0 37 58
r 1.457685 2 0 ack 40 ------- 0 3.0 0.0 32 82
+ 1.457685 0 2 tcp 1040 ------- 0 0.0 3.0 52 87
- 1.457685 0 2 tcp 1040 ------- 0 0.0 3.0 52 87
r 1.461168 3 2 ack 40 ------- 0 3.0 0.0 33 84
+ 1.461168 2 0 ack 40 ------- 0 3.0 0.0 33 84
- 1.461168 2 0 ack 40 ------- 0 3.0 0.0 33 84
r 1.461349 0 2 tcp 1040 ------- 0 0.0 3.0 52 87
+ 1.461349 2 3 tcp 1040 ------- 0 0.0 3.0 52 87
r 1.462048 2 3 tcp 1040 ------- 0 0.0 3.0 35 55
+ 1.462048 3 2 ack 40 ------- 0 3.0 0.0 35 88
- 1.462048 3 2 ack 40 ------- 0 3.0 0.0 35 88
- 1.463141 2 3 tcp 1040 ------- 0 0.0 3.0 38 59
r 1.463232 2 0 ack 40 ------- 0 3.0 0.0 33 84
+ 1.463232 0 2 tcp 1040 ------- 0 0.0 3.0 53 89
- 1.463232 0 2 tcp 1040 ------- 0 0.0 3.0 53 89
r 1.466715 3 2 ack 40 ------- 0 3.0 0.0 34 86
+ 1.466715 2 0 ack 40 ------- 0 3.0 0.0 34 86
- 1.466715 2 0 ack 40 ------- 0 3.0 0.0 34 86
r 1.466896 0 2 tcp 1040 ------- 0 0.0 3.0 53 89
+ 1.466896 2 3 tcp 1040 ------- 0 0.0 3.0 53 89
r 1.467595 2 3 tcp 1040 ------- 0 0.0 3.0 36 56
+ 1.467595 3 2 ack 40 ------- 0 3.0 0.0 36 90
- 1.467595 3 2 ack 40 ------- 0 3.0 0.0 36 90
- 1.468688 2 3 tcp 1040 ------- 0 0.0 3.0 39 61
r 1.468779 2 0 ack 40 ------- 0 3.0 0.0 34 86
+ 1.468779 0 2 tcp 1040 ------- 0 0.0 3.0 54 91
- 1.468779 0 2 tcp 1040 ------- 0 0.0 3.0 54 91
r 1.472261 3 2 ack 40 ------- 0 3.0 0.0 35 88
+ 1.472261 2 0 ack 40 ------- 0 3.0 0.0 35 88
- 1.472261 2 0 ack 40 ------- 0 3.0 0.0 35 88
r 1.472443 0 2 tcp 1040 ------- 0 0.0 3.0 54 91
+ 1.472443 2 3 tcp 1040 ------- 0 0.0 3.0 54 91
r 1.473141 2 3 tcp 1040 ------- 0 0.0 3.0 37 58
+ 1.473141 3 2 ack 40 ------- 0 3.0 0.0 37 92
- 1.473141 3 2 ack 40 ------- 0 3.0 0.0 37 92
- 1.474235 2 3 tcp 1040 ------- 0 0.0 3.0 40 63
r 1.474325 2 0 ack 40 ------- 0 3.0 0.0 35 88
+ 1.474325 0 2 tcp 1040 ------- 0 0.0 3.0 55 93
- 1.474325 0 2 tcp 1040 ------- 0 0.0 3.0 55 93
r 1.477808 3 2 ack 40 ------- 0 3.0 0.0 36 90
+ 1.477808 2 0 ack 40 ------- 0 3.0 0.0 36 90
- 1.477808 2 0 ack 40 ------- 0 3.0 0.0 36 90
r 1.477989 0 2 tcp 1040 ------- 0 0.0 3.0 55 93
+ 1.477989 2 3 tcp 1040 ------- 0 0.0 3.0 55 93
r 1.478688 2 3 tcp 1040 ------- 0 0.0 3.0 38 59
+ 1.478688 3 2 ack 40 ------- 0 3.0 0.0 38 94
- 1.478688 3 2 ack 40 ------- 0 3.0 0.0 38 94
- 1.479781 2 3 tcp 1040 ------- 0 0.0 3.0 41 65
r 1.479872 2 0 ack 40 ------- 0 3.0 0.0 36 90
+ 1.479872 0 2 tcp 1040 ------- 0 0.0 3.0 56 95
- 1.479872 0 2 tcp 1040 ------- 0 0.0 3.0 56 95
r 1.483355 3 2 ack 40 ------- 0 3.0 0.0 37 92
+ 1.483355 2 0 ack 40 ------- 0 3.0 0.0 37 92
- 1.483355 2 0 ack 40 ------- 0 3.0 0.0 37 92
r 1.483536 0 2 tcp 1040 ------- 0 0.0 3.0 56 95
+ 1.483536 2 3 tcp 1040 ------- 0 0.0 3.0 56 95
r 1.484235 2 3 tcp 1040 ------- 0 0.0 3.0 39 61
+ 1.484235 3 2 ack 40 ------- 0 3.0 0.0 39 96
- 1.484235 3 2 ack 40 ------- 0 3.0 0.0 39 96
- 1.485328 2 3 tcp 1040 ------- 0 0.0 3.0 42 67
r 1.485419 2 0 ack 40 ------- 0 3.0 0.0 37 92
+ 1.485419 0 2 tcp 1040 ------- 0 0.0 3.0 57 97
- 1.485419 0 2 tcp 1040 ------- 0 0.0 3.0 57 97
r 1.488901 3 2 ack 40 ------- 0 3.0 0.0 38 94
+ 1.488901 2 0 ack 40 ------- 0 3.0 0.0 38 94
- 1.488901 2 0 ack 40 ------- 0 3.0 0.0 38 94
r 1.489083 0 2 tcp 1040 ------- 0 0.0 3.0 57 97
+ 1.489083 2 3 tcp 1040 ------- 0 0.0 3.0 57 97
r 1.489781 2 3 tcp 1040 ------- 0 0.0 3.0 40 63
+ 1.489781 3 2 ack 40 ------- 0 3.0 0.0 40 98
- 1.489781 3 2 ack 40 ------- 0 3.0 0.0 40 98
- 1.490875 2 3 tcp 1040 ------- 0 0.0 3.0 43 69
r 1.490965 2 0 ack 40 ------- 0 3.0 0.0 38 94
+ 1.490965 0 2 tcp 1040 ------- 0 0.0 3.0 58 99
- 1.490965 0 2 tcp 1040 ------- 0 0.0 3.0 58 99
r 1.494448 3 2 ack 40 ------- 0 3.0 0.0 39 96
+ 1.494448 2 0 ack 40 ------- 0 3.0 0.0 39 96
- 1.494448 2 0 ack 40 ------- 0 3.0 0.0 39 96
r 1.494629 0 2 tcp 1040 ------- 0 0.0 3.0 58 99
+ 1.494629 2 3 tcp 1040 ------- 0 0.0 3.0 58 99
r 1.495328 2 3 tcp 1040 ------- 0 0.0 3.0 41 65
+ 1.495328 3 2 ack 40 ------- 0 3.0 0.0 41 100
- 1.495328 3 2 ack 40 ------- 0 3.0 0.0 41 100
- 1.496421 2 3 tcp 1040 ------- 0 0.0 3.0 44 71
r 1.496512 2 0 ack 40 ------- 0 3.0 0.0 39 96
+ 1.496512 0 2 tcp 1040 ------- 0 0.0 3.0 59 101
- 1.496512 0 2 tcp 1040 ------- 0 0.0 3.0 59 101
r 1.499995 3 2 ack 40 ------- 0 3.0 0.0 40 98
+ 1.499995 2 0 ack 40 ------- 0 3.0 0.0 40 98
- 1.499995 2 0 ack 40 ------- 0 3.0 0.0 40 98
r 1.500176 0 2 tcp 1040 ------- 0 0.0 3.0 59 101
+ 1.500176 2 3 tcp 1040 ------- 0 0.0 3.0 59 101
r 1.500875 2 3 tcp 1040 ------- 0 0.0 3.0 42 67
+ 1.500875 3 2 ack 40 ------- 0 3.0 0.0 42 102
- 1.500875 3 2 ack 40 ------- 0 3.0 0.0 42 102
- 1.501968 2 3 tcp 1040 ------- 0 0.0 3.0 45 73
r 1.502059 2 0 ack 40 ------- 0 3.0 0.0 40 98
+ 1.502059 0 2 tcp 1040 ------- 0 0.0 3.0 60 103
- 1.502059 0 2 tcp 1040 ------- 0 0.0 3.0 60 103
r 1.505541 3 2 ack 40 ------- 0 3.0 0.0 41 100
+ 1.505541 2 0 ack 40 ------- 0 3.0 0.0 41 100
- 1.505541 2 0 ack 40 ------- 0 3.0 0.0 41 100
r 1.505723 0 2 tcp 1040 ------- 0 0.0 3.0 60 103
+ 1.505723 2 3 tcp 1040 ------- 0 0.0 3.0 60 103
r 1.506421 2 3 tcp 1040 ------- 0 0.0 3.0 43 69
+ 1.506421 3 2 ack 40 ------- 0 3.0 0.0 43 104
- 1.506421 3 2 ack 40 ------- 0 3.0 0.0 43 104
- 1.507515 2 3 tcp 1040 ------- 0 0.0 3.0 46 75
r 1.507605 2 0 ack 40 ------- 0 3.0 0.0 41 100
+ 1.507605 0 2 tcp 1040 ------- 0 0.0 3.0 61 105
- 1.507605 0 2 tcp 1040 ------- 0 0.0 3.0 61 105
r 1.511088 3 2 ack 40 ------- 0 3.0 0.0 42 102
+ 1.511088 2 0 ack 40 ------- 0 3.0 0.0 42 102
- 1.511088 2 0 ack 40 ------- 0 3.0 0.0 42 102
r 1.511269 0 2 tcp 1040 ------- 0 0.0 3.0 61 105
+ 1.511269 2 3 tcp 1040 ------- 0 0.0 3.0 61 105
r 1.511968 2 3 tcp 1040 ------- 0 0.0 3.0 44 71
+ 1.511968 3 2 ack 40 ------- 0 3.0 0.0 44 106
- 1.511968 3 2 ack 40 ------- 0 3.0 0.0 44 106
- 1.513061 2 3 tcp 1040 ------- 0 0.0 3.0 47 77
r 1.513152 2 0 ack 40 ------- 0 3.0 0.0 42 102
+ 1.513152 0 2 tcp 1040 ------- 0 0.0 3.0 62 107
- 1.513152 0 2 tcp 1040 ------- 0 0.0 3.0 62 107
r 1.516635 3 2 ack 40 ------- 0 3.0 0.0 43 104
+ 1.516635 2 0 ack 40 ------- 0 3.0 0.0 43 104
- 1.516635 2 0 ack 40 ------- 0 3.0 0.0 43 104
r 1.516816 0 2 tcp 1040 ------- 0 0.0 3.0 62 107
+ 1.516816 2 3 tcp 1040 ------- 0 0.0 3.0 62 107
r 1.517515 2 3 tcp 1040 ------- 0 0.0 3.0 45 73
+ 1.517515 3 2 ack 40 ------- 0 3.0 0.0 45 108
- 1.517515 3 2 ack 40 ------- 0 3.0 0.0 45 108
- 1.518608 2 3 tcp 1040 ------- 0 0.0 3.0 48 79
r 1.518699 2 0 ack 40 ------- 0 3.0 0.0 43 104
+ 1.518699 0 2 tcp 1040 ------- 0 0.0 3.0 63 109
- 1.518699 0 2 tcp 1040 ------- 0 0.0 3.0 63 109
r 1.522181 3 2 ack 40 ------- 0 3.0 0.0 44 106
+ 1.522181 2 0 ack 40 ------- 0 3.0 0.0 44 106
- 1.522181 2 0 ack 40 ------- 0 3.0 0.0 44 106
r 1.522363 0 2 tcp 1040 ------- 0 0.0 3.0 63 109
+ 1.522363 2 3 tcp 1040 ------- 0 0.0 3.0 63 109
r 1.523061 2 3 tcp 1040 ------- 0 0.0 3.0 46 75
+ 1.523061 3 2 ack 40 ------- 0 3.0 0.0 46 110
- 1.523061 3 2 ack 40 ------- 0 3.0 0.0 46 110
- 1.524155 2 3 tcp 1040 ------- 0 0.0 3.0 49 81
r 1.524245 2 0 ack 40 ------- 0 3.0 0.0 44 106
+ 1.524245 0 2 tcp 1040 ------- 0 0.0 3.0 64 111
- 1.524245 0 2 tcp 1040 ------- 0 0.0 3.0 64 111
r 1.527728 3 2 ack 40 ------- 0 3.0 0.0 45 108
+ 1.527728 2 0 ack 40 ------- 0 3.0 0.0 45 108
- 1.527728 2 0 ack 40 ------- 0 3.0 0.0 45 108
r 1.527909 0 2 tcp 1040 ------- 0 0.0 3.0 64 111
+ 1.527909 2 3 tcp 1040 ------- 0 0.0 3.0 64 111
r 1.528608 2 3 tcp 1040 ------- 0 0.0 3.0 47 77
+ 1.528608 3 2 ack 40 ------- 0 3.0 0.0 47 112
- 1.528608 3 2 ack 40 ------- 0 3.0 0.0 47 112
- 1.529701 2 3 tcp 1040 ------- 0 0.0 3.0 50 83
r 1.529792 2 0 ack 40 ------- 0 3.0 0.0 45 108
+ 1.529792 0 2 tcp 1040 ------- 0 0.0 3.0 65 113