V -t * -v 1.0a5 -a 0
A -t * -n 1 -p 0 -o 0x7fffffff -c 30 -a 1
A -t * -h 1 -m 1073741823 -s 0
c -t * -i 1 -n Blue
c -t * -i 2 -n Red
n -t * -a 4 -s 4 -S UP -v circle -c black -i black
n -t * -a 0 -s 0 -S UP -v circle -c black -i black
n -t * -a 5 -s 5 -S UP -v circle -c black -i black
n -t * -a 1 -s 1 -S UP -v circle -c black -i black
n -t * -a 2 -s 2 -S UP -v circle -c black -i black
n -t * -a 3 -s 3 -S UP -v circle -c black -i black
l -t * -s 0 -d 1 -S UP -r 300000 -D 0.01 -c black -o right
l -t * -s 1 -d 2 -S UP -r 300000 -D 0.01 -c black -o right
l -t * -s 2 -d 3 -S UP -r 300000 -D 0.01 -c black -o up
l -t * -s 1 -d 4 -S UP -r 300000 -D 0.01 -c black -o up-left
l -t * -s 3 -d 5 -S UP -r 500000 -D 0.01 -c black -o up-left
l -t * -s 4 -d 5 -S UP -r 500000 -D 0.01 -c black -o right-up
+ -t 0.000169788487334637 -s 0 -d 1 -p rtProtoDV -e 6 -c 0 -i 0 -a 0 -x {0.2 1.1 -1 ------- null}
- -t 0.000169788487334637 -s 0 -d 1 -p rtProtoDV -e 6 -c 0 -i 0 -a 0 -x {0.2 1.1 -1 ------- null}
h -t 0.000169788487334637 -s 0 -d 1 -p rtProtoDV -e 6 -c 0 -i 0 -a 0 -x {0.2 1.1 -1 ------- null}
+ -t 0.00710233021858257 -s 2 -d 1 -p rtProtoDV -e 6 -c 0 -i 1 -a 0 -x {2.1 1.1 -1 ------- null}
- -t 0.00710233021858257 -s 2 -d 1 -p rtProtoDV -e 6 -c 0 -i 1 -a 0 -x {2.1 1.1 -1 ------- null}
h -t 0.00710233021858257 -s 2 -d 1 -p rtProtoDV -e 6 -c 0 -i 1 -a 0 -x {2.1 1.1 -1 ------- null}
+ -t 0.00710233021858257 -s 2 -d 3 -p rtProtoDV -e 6 -c 0 -i 2 -a 0 -x {2.1 3.1 -1 ------- null}
- -t 0.00710233021858257 -s 2 -d 3 -p rtProtoDV -e 6 -c 0 -i 2 -a 0 -x {2.1 3.1 -1 ------- null}
h -t 0.00710233021858257 -s 2 -d 3 -p rtProtoDV -e 6 -c 0 -i 2 -a 0 -x {2.1 3.1 -1 ------- null}
r -t 0.0103297884873346 -s 0 -d 1 -p rtProtoDV -e 6 -c 0 -i 0 -a 0 -x {0.2 1.1 -1 ------- null}
r -t 0.0172623302185826 -s 2 -d 1 -p rtProtoDV -e 6 -c 0 -i 1 -a 0 -x {2.1 1.1 -1 ------- null}
+ -t 0.0172623302185826 -s 1 -d 0 -p rtProtoDV -e 6 -c 0 -i 3 -a 0 -x {1.1 0.2 -1 ------- null}
- -t 0.0172623302185826 -s 1 -d 0 -p rtProtoDV -e 6 -c 0 -i 3 -a 0 -x {1.1 0.2 -1 ------- null}
h -t 0.0172623302185826 -s 1 -d 0 -p rtProtoDV -e 6 -c 0 -i 3 -a 0 -x {1.1 0.2 -1 ------- null}
+ -t 0.0172623302185826 -s 1 -d 2 -p rtProtoDV -e 6 -c 0 -i 4 -a 0 -x {1.1 2.1 -1 ------- null}
- -t 0.0172623302185826 -s 1 -d 2 -p rtProtoDV -e 6 -c 0 -i 4 -a 0 -x {1.1 2.1 -1 ------- null}
h -t 0.0172623302185826 -s 1 -d 2 -p rtProtoDV -e 6 -c 0 -i 4 -a 0 -x {1.1 2.1 -1 ------- null}
+ -t 0.0172623302185826 -s 1 -d 4 -p rtProtoDV -e 6 -c 0 -i 5 -a 0 -x {1.1 4.1 -1 ------- null}
- -t 0.0172623302185826 -s 1 -d 4 -p rtProtoDV -e 6 -c 0 -i 5 -a 0 -x {1.1 4.1 -1 ------- null}
h -t 0.0172623302185826 -s 1 -d 4 -p rtProtoDV -e 6 -c 0 -i 5 -a 0 -x {1.1 4.1 -1 ------- null}
r -t 0.0172623302185826 -s 2 -d 3 -p rtProtoDV -e 6 -c 0 -i 2 -a 0 -x {2.1 3.1 -1 ------- null}
+ -t 0.0172623302185826 -s 3 -d 2 -p rtProtoDV -e 6 -c 0 -i 6 -a 0 -x {3.1 2.1 -1 ------- null}
- -t 0.0172623302185826 -s 3 -d 2 -p rtProtoDV -e 6 -c 0 -i 6 -a 0 -x {3.1 2.1 -1 ------- null}
h -t 0.0172623302185826 -s 3 -d 2 -p rtProtoDV -e 6 -c 0 -i 6 -a 0 -x {3.1 2.1 -1 ------- null}
+ -t 0.0172623302185826 -s 3 -d 5 -p rtProtoDV -e 6 -c 0 -i 7 -a 0 -x {3.1 5.2 -1 ------- null}
- -t 0.0172623302185826 -s 3 -d 5 -p rtProtoDV -e 6 -c 0 -i 7 -a 0 -x {3.1 5.2 -1 ------- null}
h -t 0.0172623302185826 -s 3 -d 5 -p rtProtoDV -e 6 -c 0 -i 7 -a 0 -x {3.1 5.2 -1 ------- null}
r -t 0.0273583302185826 -s 3 -d 5 -p rtProtoDV -e 6 -c 0 -i 7 -a 0 -x {3.1 5.2 -1 ------- null}
+ -t 0.0273583302185826 -s 5 -d 3 -p rtProtoDV -e 6 -c 0 -i 8 -a 0 -x {5.2 3.1 -1 ------- null}
- -t 0.0273583302185826 -s 5 -d 3 -p rtProtoDV -e 6 -c 0 -i 8 -a 0 -x {5.2 3.1 -1 ------- null}
h -t 0.0273583302185826 -s 5 -d 3 -p rtProtoDV -e 6 -c 0 -i 8 -a 0 -x {5.2 3.1 -1 ------- null}
+ -t 0.0273583302185826 -s 5 -d 4 -p rtProtoDV -e 6 -c 0 -i 9 -a 0 -x {5.2 4.1 -1 ------- null}
- -t 0.0273583302185826 -s 5 -d 4 -p rtProtoDV -e 6 -c 0 -i 9 -a 0 -x {5.2 4.1 -1 ------- null}
h -t 0.0273583302185826 -s 5 -d 4 -p rtProtoDV -e 6 -c 0 -i 9 -a 0 -x {5.2 4.1 -1 ------- null}
r -t 0.0274223302185826 -s 1 -d 0 -p rtProtoDV -e 6 -c 0 -i 3 -a 0 -x {1.1 0.2 -1 ------- null}
+ -t 0.0274223302185826 -s 0 -d 1 -p rtProtoDV -e 6 -c 0 -i 10 -a 0 -x {0.2 1.1 -1 ------- null}
- -t 0.0274223302185826 -s 0 -d 1 -p rtProtoDV -e 6 -c 0 -i 10 -a 0 -x {0.2 1.1 -1 ------- null}
h -t 0.0274223302185826 -s 0 -d 1 -p rtProtoDV -e 6 -c 0 -i 10 -a 0 -x {0.2 1.1 -1 ------- null}
r -t 0.0274223302185826 -s 1 -d 2 -p rtProtoDV -e 6 -c 0 -i 4 -a 0 -x {1.1 2.1 -1 ------- null}
+ -t 0.0274223302185826 -s 2 -d 1 -p rtProtoDV -e 6 -c 0 -i 11 -a 0 -x {2.1 1.1 -1 ------- null}
- -t 0.0274223302185826 -s 2 -d 1 -p rtProtoDV -e 6 -c 0 -i 11 -a 0 -x {2.1 1.1 -1 ------- null}
h -t 0.0274223302185826 -s 2 -d 1 -p rtProtoDV -e 6 -c 0 -i 11 -a 0 -x {2.1 1.1 -1 ------- null}
+ -t 0.0274223302185826 -s 2 -d 3 -p rtProtoDV -e 6 -c 0 -i 12 -a 0 -x {2.1 3.1 -1 ------- null}
- -t 0.0274223302185826 -s 2 -d 3 -p rtProtoDV -e 6 -c 0 -i 12 -a 0 -x {2.1 3.1 -1 ------- null}
h -t 0.0274223302185826 -s 2 -d 3 -p rtProtoDV -e 6 -c 0 -i 12 -a 0 -x {2.1 3.1 -1 ------- null}
r -t 0.0274223302185826 -s 1 -d 4 -p rtProtoDV -e 6 -c 0 -i 5 -a 0 -x {1.1 4.1 -1 ------- null}
+ -t 0.0274223302185826 -s 4 -d 1 -p rtProtoDV -e 6 -c 0 -i 13 -a 0 -x {4.1 1.1 -1 ------- null}
- -t 0.0274223302185826 -s 4 -d 1 -p rtProtoDV -e 6 -c 0 -i 13 -a 0 -x {4.1 1.1 -1 ------- null}
h -t 0.0274223302185826 -s 4 -d 1 -p rtProtoDV -e 6 -c 0 -i 13 -a 0 -x {4.1 1.1 -1 ------- null}
+ -t 0.0274223302185826 -s 4 -d 5 -p rtProtoDV -e 6 -c 0 -i 14 -a 0 -x {4.1 5.2 -1 ------- null}
- -t 0.0274223302185826 -s 4 -d 5 -p rtProtoDV -e 6 -c 0 -i 14 -a 0 -x {4.1 5.2 -1 ------- null}
h -t 0.0274223302185826 -s 4 -d 5 -p rtProtoDV -e 6 -c 0 -i 14 -a 0 -x {4.1 5.2 -1 ------- null}
r -t 0.0274223302185826 -s 3 -d 2 -p rtProtoDV -e 6 -c 0 -i 6 -a 0 -x {3.1 2.1 -1 ------- null}
+ -t 0.0274223302185826 -s 2 -d 1 -p rtProtoDV -e 6 -c 0 -i 15 -a 0 -x {2.1 1.1 -1 ------- null}
+ -t 0.0274223302185826 -s 2 -d 3 -p rtProtoDV -e 6 -c 0 -i 16 -a 0 -x {2.1 3.1 -1 ------- null}
- -t 0.0275823302185826 -s 2 -d 1 -p rtProtoDV -e 6 -c 0 -i 15 -a 0 -x {2.1 1.1 -1 ------- null}
h -t 0.0275823302185826 -s 2 -d 1 -p rtProtoDV -e 6 -c 0 -i 15 -a 0 -x {2.1 1.1 -1 ------- null}
- -t 0.0275823302185826 -s 2 -d 3 -p rtProtoDV -e 6 -c 0 -i 16 -a 0 -x {2.1 3.1 -1 ------- null}
h -t 0.0275823302185826 -s 2 -d 3 -p rtProtoDV -e 6 -c 0 -i 16 -a 0 -x {2.1 3.1 -1 ------- null}
r -t 0.0374543302185826 -s 5 -d 3 -p rtProtoDV -e 6 -c 0 -i 8 -a 0 -x {5.2 3.1 -1 ------- null}
+ -t 0.0374543302185826 -s 3 -d 2 -p rtProtoDV -e 6 -c 0 -i 17 -a 0 -x {3.1 2.1 -1 ------- null}
- -t 0.0374543302185826 -s 3 -d 2 -p rtProtoDV -e 6 -c 0 -i 17 -a 0 -x {3.1 2.1 -1 ------- null}
h -t 0.0374543302185826 -s 3 -d 2 -p rtProtoDV -e 6 -c 0 -i 17 -a 0 -x {3.1 2.1 -1 ------- null}
+ -t 0.0374543302185826 -s 3 -d 5 -p rtProtoDV -e 6 -c 0 -i 18 -a 0 -x {3.1 5.2 -1 ------- null}
- -t 0.0374543302185826 -s 3 -d 5 -p rtProtoDV -e 6 -c 0 -i 18 -a 0 -x {3.1 5.2 -1 ------- null}
h -t 0.0374543302185826 -s 3 -d 5 -p rtProtoDV -e 6 -c 0 -i 18 -a 0 -x {3.1 5.2 -1 ------- null}
r -t 0.0374543302185826 -s 5 -d 4 -p rtProtoDV -e 6 -c 0 -i 9 -a 0 -x {5.2 4.1 -1 ------- null}
+ -t 0.0374543302185826 -s 4 -d 1 -p rtProtoDV -e 6 -c 0 -i 19 -a 0 -x {4.1 1.1 -1 ------- null}
- -t 0.0374543302185826 -s 4 -d 1 -p rtProtoDV -e 6 -c 0 -i 19 -a 0 -x {4.1 1.1 -1 ------- null}
h -t 0.0374543302185826 -s 4 -d 1 -p rtProtoDV -e 6 -c 0 -i 19 -a 0 -x {4.1 1.1 -1 ------- null}
+ -t 0.0374543302185826 -s 4 -d 5 -p rtProtoDV -e 6 -c 0 -i 20 -a 0 -x {4.1 5.2 -1 ------- null}
- -t 0.0374543302185826 -s 4 -d 5 -p rtProtoDV -e 6 -c 0 -i 20 -a 0 -x {4.1 5.2 -1 ------- null}
h -t 0.0374543302185826 -s 4 -d 5 -p rtProtoDV -e 6 -c 0 -i 20 -a 0 -x {4.1 5.2 -1 ------- null}
r -t 0.0375183302185826 -s 4 -d 5 -p rtProtoDV -e 6 -c 0 -i 14 -a 0 -x {4.1 5.2 -1 ------- null}
+ -t 0.0375183302185826 -s 5 -d 3 -p rtProtoDV -e 6 -c 0 -i 21 -a 0 -x {5.2 3.1 -1 ------- null}
- -t 0.0375183302185826 -s 5 -d 3 -p rtProtoDV -e 6 -c 0 -i 21 -a 0 -x {5.2 3.1 -1 ------- null}
h -t 0.0375183302185826 -s 5 -d 3 -p rtProtoDV -e 6 -c 0 -i 21 -a 0 -x {5.2 3.1 -1 ------- null}
+ -t 0.0375183302185826 -s 5 -d 4 -p rtProtoDV -e 6 -c 0 -i 22 -a 0 -x {5.2 4.1 -1 ------- null}
- -t 0.0375183302185826 -s 5 -d 4 -p rtProtoDV -e 6 -c 0 -i 22 -a 0 -x {5.2 4.1 -1 ------- null}
h -t 0.0375183302185826 -s 5 -d 4 -p rtProtoDV -e 6 -c 0 -i 22 -a 0 -x {5.2 4.1 -1 ------- null}
r -t 0.0375823302185826 -s 0 -d 1 -p rtProtoDV -e 6 -c 0 -i 10 -a 0 -x {0.2 1.1 -1 ------- null}
r -t 0.0375823302185826 -s 2 -d 1 -p rtProtoDV -e 6 -c 0 -i 11 -a 0 -x {2.1 1.1 -1 ------- null}
r -t 0.0375823302185826 -s 2 -d 3 -p rtProtoDV -e 6 -c 0 -i 12 -a 0 -x {2.1 3.1 -1 ------- null}
+ -t 0.0375823302185826 -s 3 -d 2 -p rtProtoDV -e 6 -c 0 -i 23 -a 0 -x {3.1 2.1 -1 ------- null}
+ -t 0.0375823302185826 -s 3 -d 5 -p rtProtoDV -e 6 -c 0 -i 24 -a 0 -x {3.1 5.2 -1 ------- null}
- -t 0.0375823302185826 -s 3 -d 5 -p rtProtoDV -e 6 -c 0 -i 24 -a 0 -x {3.1 5.2 -1 ------- null}
h -t 0.0375823302185826 -s 3 -d 5 -p rtProtoDV -e 6 -c 0 -i 24 -a 0 -x {3.1 5.2 -1 ------- null}
r -t 0.0375823302185826 -s 4 -d 1 -p rtProtoDV -e 6 -c 0 -i 13 -a 0 -x {4.1 1.1 -1 ------- null}
+ -t 0.0375823302185826 -s 1 -d 0 -p rtProtoDV -e 6 -c 0 -i 25 -a 0 -x {1.1 0.2 -1 ------- null}
- -t 0.0375823302185826 -s 1 -d 0 -p rtProtoDV -e 6 -c 0 -i 25 -a 0 -x {1.1 0.2 -1 ------- null}
h -t 0.0375823302185826 -s 1 -d 0 -p rtProtoDV -e 6 -c 0 -i 25 -a 0 -x {1.1 0.2 -1 ------- null}
+ -t 0.0375823302185826 -s 1 -d 2 -p rtProtoDV -e 6 -c 0 -i 26 -a 0 -x {1.1 2.1 -1 ------- null}
- -t 0.0375823302185826 -s 1 -d 2 -p rtProtoDV -e 6 -c 0 -i 26 -a 0 -x {1.1 2.1 -1 ------- null}
h -t 0.0375823302185826 -s 1 -d 2 -p rtProtoDV -e 6 -c 0 -i 26 -a 0 -x {1.1 2.1 -1 ------- null}
+ -t 0.0375823302185826 -s 1 -d 4 -p rtProtoDV -e 6 -c 0 -i 27 -a 0 -x {1.1 4.1 -1 ------- null}
- -t 0.0375823302185826 -s 1 -d 4 -p rtProtoDV -e 6 -c 0 -i 27 -a 0 -x {1.1 4.1 -1 ------- null}
h -t 0.0375823302185826 -s 1 -d 4 -p rtProtoDV -e 6 -c 0 -i 27 -a 0 -x {1.1 4.1 -1 ------- null}
- -t 0.0376143302185826 -s 3 -d 2 -p rtProtoDV -e 6 -c 0 -i 23 -a 0 -x {3.1 2.1 -1 ------- null}
h -t 0.0376143302185826 -s 3 -d 2 -p rtProtoDV -e 6 -c 0 -i 23 -a 0 -x {3.1 2.1 -1 ------- null}
r -t 0.0377423302185826 -s 2 -d 1 -p rtProtoDV -e 6 -c 0 -i 15 -a 0 -x {2.1 1.1 -1 ------- null}
r -t 0.0377423302185826 -s 2 -d 3 -p rtProtoDV -e 6 -c 0 -i 16 -a 0 -x {2.1 3.1 -1 ------- null}
+ -t 0.04406133552271 -s 3 -d 2 -p rtProtoDV -e 6 -c 0 -i 28 -a 0 -x {3.1 2.1 -1 ------- null}
- -t 0.04406133552271 -s 3 -d 2 -p rtProtoDV -e 6 -c 0 -i 28 -a 0 -x {3.1 2.1 -1 ------- null}
h -t 0.04406133552271 -s 3 -d 2 -p rtProtoDV -e 6 -c 0 -i 28 -a 0 -x {3.1 2.1 -1 ------- null}
+ -t 0.04406133552271 -s 3 -d 5 -p rtProtoDV -e 6 -c 0 -i 29 -a 0 -x {3.1 5.2 -1 ------- null}
- -t 0.04406133552271 -s 3 -d 5 -p rtProtoDV -e 6 -c 0 -i 29 -a 0 -x {3.1 5.2 -1 ------- null}
h -t 0.04406133552271 -s 3 -d 5 -p rtProtoDV -e 6 -c 0 -i 29 -a 0 -x {3.1 5.2 -1 ------- null}
r -t 0.0475503302185826 -s 3 -d 5 -p rtProtoDV -e 6 -c 0 -i 18 -a 0 -x {3.1 5.2 -1 ------- null}
r -t 0.0475503302185826 -s 4 -d 5 -p rtProtoDV -e 6 -c 0 -i 20 -a 0 -x {4.1 5.2 -1 ------- null}
r -t 0.0476143302185826 -s 3 -d 2 -p rtProtoDV -e 6 -c 0 -i 17 -a 0 -x {3.1 2.1 -1 ------- null}
r -t 0.0476143302185826 -s 4 -d 1 -p rtProtoDV -e 6 -c 0 -i 19 -a 0 -x {4.1 1.1 -1 ------- null}
r -t 0.0476143302185826 -s 5 -d 3 -p rtProtoDV -e 6 -c 0 -i 21 -a 0 -x {5.2 3.1 -1 ------- null}
r -t 0.0476143302185826 -s 5 -d 4 -p rtProtoDV -e 6 -c 0 -i 22 -a 0 -x {5.2 4.1 -1 ------- null}
r -t 0.0476783302185826 -s 3 -d 5 -p rtProtoDV -e 6 -c 0 -i 24 -a 0 -x {3.1 5.2 -1 ------- null}
r -t 0.0477423302185826 -s 1 -d 0 -p rtProtoDV -e 6 -c 0 -i 25 -a 0 -x {1.1 0.2 -1 ------- null}
+ -t 0.0477423302185826 -s 0 -d 1 -p rtProtoDV -e 6 -c 0 -i 30 -a 0 -x {0.2 1.1 -1 ------- null}
- -t 0.0477423302185826 -s 0 -d 1 -p rtProtoDV -e 6 -c 0 -i 30 -a 0 -x {0.2 1.1 -1 ------- null}
h -t 0.0477423302185826 -s 0 -d 1 -p rtProtoDV -e 6 -c 0 -i 30 -a 0 -x {0.2 1.1 -1 ------- null}
r -t 0.0477423302185826 -s 1 -d 2 -p rtProtoDV -e 6 -c 0 -i 26 -a 0 -x {1.1 2.1 -1 ------- null}
r -t 0.0477423302185826 -s 1 -d 4 -p rtProtoDV -e 6 -c 0 -i 27 -a 0 -x {1.1 4.1 -1 ------- null}
r -t 0.0477743302185826 -s 3 -d 2 -p rtProtoDV -e 6 -c 0 -i 23 -a 0 -x {3.1 2.1 -1 ------- null}
r -t 0.05415733552271 -s 3 -d 5 -p rtProtoDV -e 6 -c 0 -i 29 -a 0 -x {3.1 5.2 -1 ------- null}
r -t 0.05422133552271 -s 3 -d 2 -p rtProtoDV -e 6 -c 0 -i 28 -a 0 -x {3.1 2.1 -1 ------- null}
r -t 0.0579023302185826 -s 0 -d 1 -p rtProtoDV -e 6 -c 0 -i 30 -a 0 -x {0.2 1.1 -1 ------- null}
+ -t 0.1 -s 0 -d 1 -p tcp -e 40 -c 1 -i 31 -a 1 -x {0.0 5.0 0 ------- null}
- -t 0.1 -s 0 -d 1 -p tcp -e 40 -c 1 -i 31 -a 1 -x {0.0 5.0 0 ------- null}
h -t 0.1 -s 0 -d 1 -p tcp -e 40 -c 1 -i 31 -a 1 -x {0.0 5.0 -1 ------- null}
r -t 0.111066666666667 -s 0 -d 1 -p tcp -e 40 -c 1 -i 31 -a 1 -x {0.0 5.0 0 ------- null}
+ -t 0.111066666666667 -s 1 -d 4 -p tcp -e 40 -c 1 -i 31 -a 1 -x {0.0 5.0 0 ------- null}
- -t 0.111066666666667 -s 1 -d 4 -p tcp -e 40 -c 1 -i 31 -a 1 -x {0.0 5.0 0 ------- null}
h -t 0.111066666666667 -s 1 -d 4 -p tcp -e 40 -c 1 -i 31 -a 1 -x {0.0 5.0 -1 ------- null}
r -t 0.122133333333333 -s 1 -d 4 -p tcp -e 40 -c 1 -i 31 -a 1 -x {0.0 5.0 0 ------- null}
+ -t 0.122133333333333 -s 4 -d 5 -p tcp -e 40 -c 1 -i 31 -a 1 -x {0.0 5.0 0 ------- null}
- -t 0.122133333333333 -s 4 -d 5 -p tcp -e 40 -c 1 -i 31 -a 1 -x {0.0 5.0 0 ------- null}
h -t 0.122133333333333 -s 4 -d 5 -p tcp -e 40 -c 1 -i 31 -a 1 -x {0.0 5.0 -1 ------- null}
r -t 0.132773333333333 -s 4 -d 5 -p tcp -e 40 -c 1 -i 31 -a 1 -x {0.0 5.0 0 ------- null}
+ -t 0.132773333333333 -s 5 -d 4 -p ack -e 40 -c 1 -i 32 -a 1 -x {5.0 0.0 0 ------- null}
- -t 0.132773333333333 -s 5 -d 4 -p ack -e 40 -c 1 -i 32 -a 1 -x {5.0 0.0 0 ------- null}
h -t 0.132773333333333 -s 5 -d 4 -p ack -e 40 -c 1 -i 32 -a 1 -x {5.0 0.0 -1 ------- null}
r -t 0.143413333333333 -s 5 -d 4 -p ack -e 40 -c 1 -i 32 -a 1 -x {5.0 0.0 0 ------- null}
+ -t 0.143413333333333 -s 4 -d 1 -p ack -e 40 -c 1 -i 32 -a 1 -x {5.0 0.0 0 ------- null}
- -t 0.143413333333333 -s 4 -d 1 -p ack -e 40 -c 1 -i 32 -a 1 -x {5.0 0.0 0 ------- null}
h -t 0.143413333333333 -s 4 -d 1 -p ack -e 40 -c 1 -i 32 -a 1 -x {5.0 0.0 -1 ------- null}
r -t 0.15448 -s 4 -d 1 -p ack -e 40 -c 1 -i 32 -a 1 -x {5.0 0.0 0 ------- null}
+ -t 0.15448 -s 1 -d 0 -p ack -e 40 -c 1 -i 32 -a 1 -x {5.0 0.0 0 ------- null}
- -t 0.15448 -s 1 -d 0 -p ack -e 40 -c 1 -i 32 -a 1 -x {5.0 0.0 0 ------- null}
h -t 0.15448 -s 1 -d 0 -p ack -e 40 -c 1 -i 32 -a 1 -x {5.0 0.0 -1 ------- null}
r -t 0.165546666666667 -s 1 -d 0 -p ack -e 40 -c 1 -i 32 -a 1 -x {5.0 0.0 0 ------- null}
+ -t 0.165546666666667 -s 0 -d 1 -p tcp -e 1040 -c 1 -i 33 -a 1 -x {0.0 5.0 1 ------- null}
- -t 0.165546666666667 -s 0 -d 1 -p tcp -e 1040 -c 1 -i 33 -a 1 -x {0.0 5.0 1 ------- null}
h -t 0.165546666666667 -s 0 -d 1 -p tcp -e 1040 -c 1 -i 33 -a 1 -x {0.0 5.0 -1 ------- null}
+ -t 0.165546666666667 -s 0 -d 1 -p tcp -e 1040 -c 1 -i 34 -a 1 -x {0.0 5.0 2 ------- null}
- -t 0.19328 -s 0 -d 1 -p tcp -e 1040 -c 1 -i 34 -a 1 -x {0.0 5.0 2 ------- null}
h -t 0.19328 -s 0 -d 1 -p tcp -e 1040 -c 1 -i 34 -a 1 -x {0.0 5.0 -1 ------- null}
r -t 0.20328 -s 0 -d 1 -p tcp -e 1040 -c 1 -i 33 -a 1 -x {0.0 5.0 1 ------- null}
+ -t 0.20328 -s 1 -d 4 -p tcp -e 1040 -c 1 -i 33 -a 1 -x {0.0 5.0 1 ------- null}
- -t 0.20328 -s 1 -d 4 -p tcp -e 1040 -c 1 -i 33 -a 1 -x {0.0 5.0 1 ------- null}
h -t 0.20328 -s 1 -d 4 -p tcp -e 1040 -c 1 -i 33 -a 1 -x {0.0 5.0 -1 ------- null}
+ -t 0.22058669092161 -s 4 -d 1 -p rtProtoDV -e 6 -c 0 -i 35 -a 0 -x {4.1 1.1 -1 ------- null}
- -t 0.22058669092161 -s 4 -d 1 -p rtProtoDV -e 6 -c 0 -i 35 -a 0 -x {4.1 1.1 -1 ------- null}
h -t 0.22058669092161 -s 4 -d 1 -p rtProtoDV -e 6 -c 0 -i 35 -a 0 -x {4.1 1.1 -1 ------- null}
+ -t 0.22058669092161 -s 4 -d 5 -p rtProtoDV -e 6 -c 0 -i 36 -a 0 -x {4.1 5.2 -1 ------- null}
- -t 0.22058669092161 -s 4 -d 5 -p rtProtoDV -e 6 -c 0 -i 36 -a 0 -x {4.1 5.2 -1 ------- null}
h -t 0.22058669092161 -s 4 -d 5 -p rtProtoDV -e 6 -c 0 -i 36 -a 0 -x {4.1 5.2 -1 ------- null}
r -t 0.23068269092161 -s 4 -d 5 -p rtProtoDV -e 6 -c 0 -i 36 -a 0 -x {4.1 5.2 -1 ------- null}
r -t 0.23074669092161 -s 4 -d 1 -p rtProtoDV -e 6 -c 0 -i 35 -a 0 -x {4.1 1.1 -1 ------- null}
r -t 0.231013333333333 -s 0 -d 1 -p tcp -e 1040 -c 1 -i 34 -a 1 -x {0.0 5.0 2 ------- null}
+ -t 0.231013333333333 -s 1 -d 4 -p tcp -e 1040 -c 1 -i 34 -a 1 -x {0.0 5.0 2 ------- null}
- -t 0.231013333333333 -s 1 -d 4 -p tcp -e 1040 -c 1 -i 34 -a 1 -x {0.0 5.0 2 ------- null}
h -t 0.231013333333333 -s 1 -d 4 -p tcp -e 1040 -c 1 -i 34 -a 1 -x {0.0 5.0 -1 ------- null}
r -t 0.241013333333333 -s 1 -d 4 -p tcp -e 1040 -c 1 -i 33 -a 1 -x {0.0 5.0 1 ------- null}
+ -t 0.241013333333333 -s 4 -d 5 -p tcp -e 1040 -c 1 -i 33 -a 1 -x {0.0 5.0 1 ------- null}
- -t 0.241013333333333 -s 4 -d 5 -p tcp -e 1040 -c 1 -i 33 -a 1 -x {0.0 5.0 1 ------- null}
h -t 0.241013333333333 -s 4 -d 5 -p tcp -e 1040 -c 1 -i 33 -a 1 -x {0.0 5.0 -1 ------- null}
r -t 0.267653333333333 -s 4 -d 5 -p tcp -e 1040 -c 1 -i 33 -a 1 -x {0.0 5.0 1 ------- null}
+ -t 0.267653333333333 -s 5 -d 4 -p ack -e 40 -c 1 -i 37 -a 1 -x {5.0 0.0 1 ------- null}
- -t 0.267653333333333 -s 5 -d 4 -p ack -e 40 -c 1 -i 37 -a 1 -x {5.0 0.0 1 ------- null}
h -t 0.267653333333333 -s 5 -d 4 -p ack -e 40 -c 1 -i 37 -a 1 -x {5.0 0.0 -1 ------- null}
r -t 0.268746666666667 -s 1 -d 4 -p tcp -e 1040 -c 1 -i 34 -a 1 -x {0.0 5.0 2 ------- null}
+ -t 0.268746666666667 -s 4 -d 5 -p tcp -e 1040 -c 1 -i 34 -a 1 -x {0.0 5.0 2 ------- null}
- -t 0.268746666666667 -s 4 -d 5 -p tcp -e 1040 -c 1 -i 34 -a 1 -x {0.0 5.0 2 ------- null}
h -t 0.268746666666667 -s 4 -d 5 -p tcp -e 1040 -c 1 -i 34 -a 1 -x {0.0 5.0 -1 ------- null}
+ -t 0.277940357931862 -s 1 -d 0 -p rtProtoDV -e 6 -c 0 -i 38 -a 0 -x {1.1 0.2 -1 ------- null}
- -t 0.277940357931862 -s 1 -d 0 -p rtProtoDV -e 6 -c 0 -i 38 -a 0 -x {1.1 0.2 -1 ------- null}
h -t 0.277940357931862 -s 1 -d 0 -p rtProtoDV -e 6 -c 0 -i 38 -a 0 -x {1.1 0.2 -1 ------- null}
+ -t 0.277940357931862 -s 1 -d 2 -p rtProtoDV -e 6 -c 0 -i 39 -a 0 -x {1.1 2.1 -1 ------- null}
- -t 0.277940357931862 -s 1 -d 2 -p rtProtoDV -e 6 -c 0 -i 39 -a 0 -x {1.1 2.1 -1 ------- null}
h -t 0.277940357931862 -s 1 -d 2 -p rtProtoDV -e 6 -c 0 -i 39 -a 0 -x {1.1 2.1 -1 ------- null}
+ -t 0.277940357931862 -s 1 -d 4 -p rtProtoDV -e 6 -c 0 -i 40 -a 0 -x {1.1 4.1 -1 ------- null}
- -t 0.277940357931862 -s 1 -d 4 -p rtProtoDV -e 6 -c 0 -i 40 -a 0 -x {1.1 4.1 -1 ------- null}
h -t 0.277940357931862 -s 1 -d 4 -p rtProtoDV -e 6 -c 0 -i 40 -a 0 -x {1.1 4.1 -1 ------- null}
r -t 0.278293333333333 -s 5 -d 4 -p ack -e 40 -c 1 -i 37 -a 1 -x {5.0 0.0 1 ------- null}
+ -t 0.278293333333333 -s 4 -d 1 -p ack -e 40 -c 1 -i 37 -a 1 -x {5.0 0.0 1 ------- null}
- -t 0.278293333333333 -s 4 -d 1 -p ack -e 40 -c 1 -i 37 -a 1 -x {5.0 0.0 1 ------- null}
h -t 0.278293333333333 -s 4 -d 1 -p ack -e 40 -c 1 -i 37 -a 1 -x {5.0 0.0 -1 ------- null}
r -t 0.288100357931862 -s 1 -d 0 -p rtProtoDV -e 6 -c 0 -i 38 -a 0 -x {1.1 0.2 -1 ------- null}
r -t 0.288100357931862 -s 1 -d 2 -p rtProtoDV -e 6 -c 0 -i 39 -a 0 -x {1.1 2.1 -1 ------- null}
r -t 0.288100357931862 -s 1 -d 4 -p rtProtoDV -e 6 -c 0 -i 40 -a 0 -x {1.1 4.1 -1 ------- null}
r -t 0.28936 -s 4 -d 1 -p ack -e 40 -c 1 -i 37 -a 1 -x {5.0 0.0 1 ------- null}
+ -t 0.28936 -s 1 -d 0 -p ack -e 40 -c 1 -i 37 -a 1 -x {5.0 0.0 1 ------- null}
- -t 0.28936 -s 1 -d 0 -p ack -e 40 -c 1 -i 37 -a 1 -x {5.0 0.0 1 ------- null}
h -t 0.28936 -s 1 -d 0 -p ack -e 40 -c 1 -i 37 -a 1 -x {5.0 0.0 -1 ------- null}
r -t 0.295386666666667 -s 4 -d 5 -p tcp -e 1040 -c 1 -i 34 -a 1 -x {0.0 5.0 2 ------- null}
+ -t 0.295386666666667 -s 5 -d 4 -p ack -e 40 -c 1 -i 41 -a 1 -x {5.0 0.0 2 ------- null}
- -t 0.295386666666667 -s 5 -d 4 -p ack -e 40 -c 1 -i 41 -a 1 -x {5.0 0.0 2 ------- null}
h -t 0.295386666666667 -s 5 -d 4 -p ack -e 40 -c 1 -i 41 -a 1 -x {5.0 0.0 -1 ------- null}
r -t 0.300426666666667 -s 1 -d 0 -p ack -e 40 -c 1 -i 37 -a 1 -x {5.0 0.0 1 ------- null}
+ -t 0.300426666666667 -s 0 -d 1 -p tcp -e 1040 -c 1 -i 42 -a 1 -x {0.0 5.0 3 ------- null}
- -t 0.300426666666667 -s 0 -d 1 -p tcp -e 1040 -c 1 -i 42 -a 1 -x {0.0 5.0 3 ------- null}
h -t 0.300426666666667 -s 0 -d 1 -p tcp -e 1040 -c 1 -i 42 -a 1 -x {0.0 5.0 -1 ------- null}
+ -t 0.300426666666667 -s 0 -d 1 -p tcp -e 1040 -c 1 -i 43 -a 1 -x {0.0 5.0 4 ------- null}
r -t 0.306026666666667 -s 5 -d 4 -p ack -e 40 -c 1 -i 41 -a 1 -x {5.0 0.0 2 ------- null}
+ -t 0.306026666666667 -s 4 -d 1 -p ack -e 40 -c 1 -i 41 -a 1 -x {5.0 0.0 2 ------- null}
- -t 0.306026666666667 -s 4 -d 1 -p ack -e 40 -c 1 -i 41 -a 1 -x {5.0 0.0 2 ------- null}
h -t 0.306026666666667 -s 4 -d 1 -p ack -e 40 -c 1 -i 41 -a 1 -x {5.0 0.0 -1 ------- null}
r -t 0.317093333333333 -s 4 -d 1 -p ack -e 40 -c 1 -i 41 -a 1 -x {5.0 0.0 2 ------- null}
+ -t 0.317093333333333 -s 1 -d 0 -p ack -e 40 -c 1 -i 41 -a 1 -x {5.0 0.0 2 ------- null}
- -t 0.317093333333333 -s 1 -d 0 -p ack -e 40 -c 1 -i 41 -a 1 -x {5.0 0.0 2 ------- null}
h -t 0.317093333333333 -s 1 -d 0 -p ack -e 40 -c 1 -i 41 -a 1 -x {5.0 0.0 -1 ------- null}
r -t 0.32816 -s 1 -d 0 -p ack -e 40 -c 1 -i 41 -a 1 -x {5.0 0.0 2 ------- null}
+ -t 0.32816 -s 0 -d 1 -p tcp -e 1040 -c 1 -i 44 -a 1 -x {0.0 5.0 5 ------- null}
+ -t 0.32816 -s 0 -d 1 -p tcp -e 1040 -c 1 -i 45 -a 1 -x {0.0 5.0 6 ------- null}
- -t 0.32816 -s 0 -d 1 -p tcp -e 1040 -c 1 -i 43 -a 1 -x {0.0 5.0 4 ------- null}
h -t 0.32816 -s 0 -d 1 -p tcp -e 1040 -c 1 -i 43 -a 1 -x {0.0 5.0 -1 ------- null}
r -t 0.33816 -s 0 -d 1 -p tcp -e 1040 -c 1 -i 42 -a 1 -x {0.0 5.0 3 ------- null}
+ -t 0.33816 -s 1 -d 4 -p tcp -e 1040 -c 1 -i 42 -a 1 -x {0.0 5.0 3 ------- null}
- -t 0.33816 -s 1 -d 4 -p tcp -e 1040 -c 1 -i 42 -a 1 -x {0.0 5.0 3 ------- null}
h -t 0.33816 -s 1 -d 4 -p tcp -e 1040 -c 1 -i 42 -a 1 -x {0.0 5.0 -1 ------- null}
- -t 0.355893333333333 -s 0 -d 1 -p tcp -e 1040 -c 1 -i 44 -a 1 -x {0.0 5.0 5 ------- null}
h -t 0.355893333333333 -s 0 -d 1 -p tcp -e 1040 -c 1 -i 44 -a 1 -x {0.0 5.0 -1 ------- null}
r -t 0.365893333333333 -s 0 -d 1 -p tcp -e 1040 -c 1 -i 43 -a 1 -x {0.0 5.0 4 ------- null}
+ -t 0.365893333333333 -s 1 -d 4 -p tcp -e 1040 -c 1 -i 43 -a 1 -x {0.0 5.0 4 ------- null}
- -t 0.365893333333333 -s 1 -d 4 -p tcp -e 1040 -c 1 -i 43 -a 1 -x {0.0 5.0 4 ------- null}
h -t 0.365893333333333 -s 1 -d 4 -p tcp -e 1040 -c 1 -i 43 -a 1 -x {0.0 5.0 -1 ------- null}
r -t 0.375893333333333 -s 1 -d 4 -p tcp -e 1040 -c 1 -i 42 -a 1 -x {0.0 5.0 3 ------- null}
+ -t 0.375893333333333 -s 4 -d 5 -p tcp -e 1040 -c 1 -i 42 -a 1 -x {0.0 5.0 3 ------- null}
- -t 0.375893333333333 -s 4 -d 5 -p tcp -e 1040 -c 1 -i 42 -a 1 -x {0.0 5.0 3 ------- null}
h -t 0.375893333333333 -s 4 -d 5 -p tcp -e 1040 -c 1 -i 42 -a 1 -x {0.0 5.0 -1 ------- null}
- -t 0.383626666666667 -s 0 -d 1 -p tcp -e 1040 -c 1 -i 45 -a 1 -x {0.0 5.0 6 ------- null}
h -t 0.383626666666667 -s 0 -d 1 -p tcp -e 1040 -c 1 -i 45 -a 1 -x {0.0 5.0 -1 ------- null}
r -t 0.393626666666667 -s 0 -d 1 -p tcp -e 1040 -c 1 -i 44 -a 1 -x {0.0 5.0 5 ------- null}
+ -t 0.393626666666667 -s 1 -d 4 -p tcp -e 1040 -c 1 -i 44 -a 1 -x {0.0 5.0 5 ------- null}
- -t 0.393626666666667 -s 1 -d 4 -p tcp -e 1040 -c 1 -i 44 -a 1 -x {0.0 5.0 5 ------- null}
h -t 0.393626666666667 -s 1 -d 4 -p tcp -e 1040 -c 1 -i 44 -a 1 -x {0.0 5.0 -1 ------- null}
+ -t 0.399577726796073 -s 5 -d 3 -p rtProtoDV -e 6 -c 0 -i 46 -a 0 -x {5.2 3.1 -1 ------- null}
- -t 0.399577726796073 -s 5 -d 3 -p rtProtoDV -e 6 -c 0 -i 46 -a 0 -x {5.2 3.1 -1 ------- null}
h -t 0.399577726796073 -s 5 -d 3 -p rtProtoDV -e 6 -c 0 -i 46 -a 0 -x {5.2 3.1 -1 ------- null}
+ -t 0.399577726796073 -s 5 -d 4 -p rtProtoDV -e 6 -c 0 -i 47 -a 0 -x {5.2 4.1 -1 ------- null}
- -t 0.399577726796073 -s 5 -d 4 -p rtProtoDV -e 6 -c 0 -i 47 -a 0 -x {5.2 4.1 -1 ------- null}
h -t 0.399577726796073 -s 5 -d 4 -p rtProtoDV -e 6 -c 0 -i 47 -a 0 -x {5.2 4.1 -1 ------- null}
r -t 0.402533333333333 -s 4 -d 5 -p tcp -e 1040 -c 1 -i 42 -a 1 -x {0.0 5.0 3 ------- null}
+ -t 0.402533333333333 -s 5 -d 4 -p ack -e 40 -c 1 -i 48 -a 1 -x {5.0 0.0 3 ------- null}
- -t 0.402533333333333 -s 5 -d 4 -p ack -e 40 -c 1 -i 48 -a 1 -x {5.0 0.0 3 ------- null}
h -t 0.402533333333333 -s 5 -d 4 -p ack -e 40 -c 1 -i 48 -a 1 -x {5.0 0.0 -1 ------- null}
r -t 0.403626666666667 -s 1 -d 4 -p tcp -e 1040 -c 1 -i 43 -a 1 -x {0.0 5.0 4 ------- null}
+ -t 0.403626666666667 -s 4 -d 5 -p tcp -e 1040 -c 1 -i 43 -a 1 -x {0.0 5.0 4 ------- null}
- -t 0.403626666666667 -s 4 -d 5 -p tcp -e 1040 -c 1 -i 43 -a 1 -x {0.0 5.0 4 ------- null}
h -t 0.403626666666667 -s 4 -d 5 -p tcp -e 1040 -c 1 -i 43 -a 1 -x {0.0 5.0 -1 ------- null}
r -t 0.409673726796073 -s 5 -d 3 -p rtProtoDV -e 6 -c 0 -i 46 -a 0 -x {5.2 3.1 -1 ------- null}
r -t 0.409673726796073 -s 5 -d 4 -p rtProtoDV -e 6 -c 0 -i 47 -a 0 -x {5.2 4.1 -1 ------- null}
r -t 0.413173333333333 -s 5 -d 4 -p ack -e 40 -c 1 -i 48 -a 1 -x {5.0 0.0 3 ------- null}
+ -t 0.413173333333333 -s 4 -d 1 -p ack -e 40 -c 1 -i 48 -a 1 -x {5.0 0.0 3 ------- null}
- -t 0.413173333333333 -s 4 -d 1 -p ack -e 40 -c 1 -i 48 -a 1 -x {5.0 0.0 3 ------- null}
h -t 0.413173333333333 -s 4 -d 1 -p ack -e 40 -c 1 -i 48 -a 1 -x {5.0 0.0 -1 ------- null}
r -t 0.42136 -s 0 -d 1 -p tcp -e 1040 -c 1 -i 45 -a 1 -x {0.0 5.0 6 ------- null}
+ -t 0.42136 -s 1 -d 4 -p tcp -e 1040 -c 1 -i 45 -a 1 -x {0.0 5.0 6 ------- null}
- -t 0.42136 -s 1 -d 4 -p tcp -e 1040 -c 1 -i 45 -a 1 -x {0.0 5.0 6 ------- null}
h -t 0.42136 -s 1 -d 4 -p tcp -e 1040 -c 1 -i 45 -a 1 -x {0.0 5.0 -1 ------- null}
r -t 0.42424 -s 4 -d 1 -p ack -e 40 -c 1 -i 48 -a 1 -x {5.0 0.0 3 ------- null}
+ -t 0.42424 -s 1 -d 0 -p ack -e 40 -c 1 -i 48 -a 1 -x {5.0 0.0 3 ------- null}
- -t 0.42424 -s 1 -d 0 -p ack -e 40 -c 1 -i 48 -a 1 -x {5.0 0.0 3 ------- null}
h -t 0.42424 -s 1 -d 0 -p ack -e 40 -c 1 -i 48 -a 1 -x {5.0 0.0 -1 ------- null}
r -t 0.430266666666667 -s 4 -d 5 -p tcp -e 1040 -c 1 -i 43 -a 1 -x {0.0 5.0 4 ------- null}
+ -t 0.430266666666667 -s 5 -d 4 -p ack -e 40 -c 1 -i 49 -a 1 -x {5.0 0.0 4 ------- null}
- -t 0.430266666666667 -s 5 -d 4 -p ack -e 40 -c 1 -i 49 -a 1 -x {5.0 0.0 4 ------- null}
h -t 0.430266666666667 -s 5 -d 4 -p ack -e 40 -c 1 -i 49 -a 1 -x {5.0 0.0 -1 ------- null}
r -t 0.43136 -s 1 -d 4 -p tcp -e 1040 -c 1 -i 44 -a 1 -x {0.0 5.0 5 ------- null}
+ -t 0.43136 -s 4 -d 5 -p tcp -e 1040 -c 1 -i 44 -a 1 -x {0.0 5.0 5 ------- null}
- -t 0.43136 -s 4 -d 5 -p tcp -e 1040 -c 1 -i 44 -a 1 -x {0.0 5.0 5 ------- null}
h -t 0.43136 -s 4 -d 5 -p tcp -e 1040 -c 1 -i 44 -a 1 -x {0.0 5.0 -1 ------- null}
r -t 0.435306666666667 -s 1 -d 0 -p ack -e 40 -c 1 -i 48 -a 1 -x {5.0 0.0 3 ------- null}
+ -t 0.435306666666667 -s 0 -d 1 -p tcp -e 1040 -c 1 -i 50 -a 1 -x {0.0 5.0 7 ------- null}
- -t 0.435306666666667 -s 0 -d 1 -p tcp -e 1040 -c 1 -i 50 -a 1 -x {0.0 5.0 7 ------- null}
h -t 0.435306666666667 -s 0 -d 1 -p tcp -e 1040 -c 1 -i 50 -a 1 -x {0.0 5.0 -1 ------- null}
+ -t 0.435306666666667 -s 0 -d 1 -p tcp -e 1040 -c 1 -i 51 -a 1 -x {0.0 5.0 8 ------- null}
r -t 0.440906666666667 -s 5 -d 4 -p ack -e 40 -c 1 -i 49 -a 1 -x {5.0 0.0 4 ------- null}
+ -t 0.440906666666667 -s 4 -d 1 -p ack -e 40 -c 1 -i 49 -a 1 -x {5.0 0.0 4 ------- null}
- -t 0.440906666666667 -s 4 -d 1 -p ack -e 40 -c 1 -i 49 -a 1 -x {5.0 0.0 4 ------- null}
h -t 0.440906666666667 -s 4 -d 1 -p ack -e 40 -c 1 -i 49 -a 1 -x {5.0 0.0 -1 ------- null}
r -t 0.451973333333333 -s 4 -d 1 -p ack -e 40 -c 1 -i 49 -a 1 -x {5.0 0.0 4 ------- null}
+ -t 0.451973333333333 -s 1 -d 0 -p ack -e 40 -c 1 -i 49 -a 1 -x {5.0 0.0 4 ------- null}
- -t 0.451973333333333 -s 1 -d 0 -p ack -e 40 -c 1 -i 49 -a 1 -x {5.0 0.0 4 ------- null}
h -t 0.451973333333333 -s 1 -d 0 -p ack -e 40 -c 1 -i 49 -a 1 -x {5.0 0.0 -1 ------- null}
r -t 0.458 -s 4 -d 5 -p tcp -e 1040 -c 1 -i 44 -a 1 -x {0.0 5.0 5 ------- null}
+ -t 0.458 -s 5 -d 4 -p ack -e 40 -c 1 -i 52 -a 1 -x {5.0 0.0 5 ------- null}
- -t 0.458 -s 5 -d 4 -p ack -e 40 -c 1 -i 52 -a 1 -x {5.0 0.0 5 ------- null}
h -t 0.458 -s 5 -d 4 -p ack -e 40 -c 1 -i 52 -a 1 -x {5.0 0.0 -1 ------- null}
r -t 0.459093333333333 -s 1 -d 4 -p tcp -e 1040 -c 1 -i 45 -a 1 -x {0.0 5.0 6 ------- null}
+ -t 0.459093333333333 -s 4 -d 5 -p tcp -e 1040 -c 1 -i 45 -a 1 -x {0.0 5.0 6 ------- null}
- -t 0.459093333333333 -s 4 -d 5 -p tcp -e 1040 -c 1 -i 45 -a 1 -x {0.0 5.0 6 ------- null}
h -t 0.459093333333333 -s 4 -d 5 -p tcp -e 1040 -c 1 -i 45 -a 1 -x {0.0 5.0 -1 ------- null}
- -t 0.46304 -s 0 -d 1 -p tcp -e 1040 -c 1 -i 51 -a 1 -x {0.0 5.0 8 ------- null}
h -t 0.46304 -s 0 -d 1 -p tcp -e 1040 -c 1 -i 51 -a 1 -x {0.0 5.0 -1 ------- null}
r -t 0.46304 -s 1 -d 0 -p ack -e 40 -c 1 -i 49 -a 1 -x {5.0 0.0 4 ------- null}
+ -t 0.46304 -s 0 -d 1 -p tcp -e 1040 -c 1 -i 53 -a 1 -x {0.0 5.0 9 ------- null}
+ -t 0.46304 -s 0 -d 1 -p tcp -e 1040 -c 1 -i 54 -a 1 -x {0.0 5.0 10 ------- null}
r -t 0.46864 -s 5 -d 4 -p ack -e 40 -c 1 -i 52 -a 1 -x {5.0 0.0 5 ------- null}
+ -t 0.46864 -s 4 -d 1 -p ack -e 40 -c 1 -i 52 -a 1 -x {5.0 0.0 5 ------- null}
- -t 0.46864 -s 4 -d 1 -p ack -e 40 -c 1 -i 52 -a 1 -x {5.0 0.0 5 ------- null}
h -t 0.46864 -s 4 -d 1 -p ack -e 40 -c 1 -i 52 -a 1 -x {5.0 0.0 -1 ------- null}
r -t 0.47304 -s 0 -d 1 -p tcp -e 1040 -c 1 -i 50 -a 1 -x {0.0 5.0 7 ------- null}
+ -t 0.47304 -s 1 -d 4 -p tcp -e 1040 -c 1 -i 50 -a 1 -x {0.0 5.0 7 ------- null}
- -t 0.47304 -s 1 -d 4 -p tcp -e 1040 -c 1 -i 50 -a 1 -x {0.0 5.0 7 ------- null}
h -t 0.47304 -s 1 -d 4 -p tcp -e 1040 -c 1 -i 50 -a 1 -x {0.0 5.0 -1 ------- null}
r -t 0.479706666666667 -s 4 -d 1 -p ack -e 40 -c 1 -i 52 -a 1 -x {5.0 0.0 5 ------- null}
+ -t 0.479706666666667 -s 1 -d 0 -p ack -e 40 -c 1 -i 52 -a 1 -x {5.0 0.0 5 ------- null}
- -t 0.479706666666667 -s 1 -d 0 -p ack -e 40 -c 1 -i 52 -a 1 -x {5.0 0.0 5 ------- null}