n -t * -s 0  -x 395.91632173206489 -y 132.49548065126663 -Z 0 -z 40  -v circle -c black
n -t * -s 1  -x 64.429132297834911 -y 288.34122376904878 -Z 0 -z 40  -v circle -c black
n -t * -s 2  -x 188.68485800395015 -y 181.12677791208344 -Z 0 -z 40  -v circle -c black
n -t * -s 3  -x 247.19546048305719 -y 91.283470993527899 -Z 0 -z 40  -v circle -c black
n -t * -s 4  -x 251.62123527918999 -y 398.48106987703642 -Z 0 -z 40  -v circle -c black
n -t * -s 5  -x 89.176779188763717 -y 235.30226044138067 -Z 0 -z 40  -v circle -c black
n -t * -s 6  -x 406.36404785623967 -y 208.44185585549187 -Z 0 -z 40  -v circle -c black
n -t * -s 7  -x 102.83920406496115 -y 334.80217584166775 -Z 0 -z 40  -v circle -c black
n -t * -s 8  -x 275.21171363778956 -y 386.61688826355009 -Z 0 -z 40  -v circle -c black
n -t * -s 9  -x 337.55130685751857 -y 179.85148345113336 -Z 0 -z 40  -v circle -c black
n -t * -s 10  -x 454.8529539978378 -y 170.87827332824389 -Z 0 -z 40  -v circle -c black
n -t * -s 11  -x 438.92478474365771 -y 7.0857493239854223 -Z 0 -z 40  -v circle -c black
n -t * -s 12  -x 362.73611027874801 -y 4.6443639344742351 -Z 0 -z 40  -v circle -c black
n -t * -s 13  -x 72.280808385592323 -y 258.83722932023801 -Z 0 -z 40  -v circle -c black
n -t * -s 14  -x 346.64148154977784 -y 2.7043256921248164 -Z 0 -z 40  -v circle -c black
n -t * -s 15  -x 314.50238442723747 -y 273.26005486457609 -Z 0 -z 40  -v circle -c black
n -t * -s 16  -x 352.17763616339192 -y 39.624798502598331 -Z 0 -z 40  -v circle -c black
n -t * -s 17  -x 467.48554146265872 -y 23.596290323695303 -Z 0 -z 40  -v circle -c black
n -t * -s 18  -x 228.56433793369882 -y 384.66212134094076 -Z 0 -z 40  -v circle -c black
n -t * -s 19  -x 270.34172148925336 -y 106.65045590449611 -Z 0 -z 40  -v circle -c black
n -t * -s 20  -x 92.765483582748786 -y 87.586060207144385 -Z 0 -z 40  -v circle -c black
n -t * -s 21  -x 73.642376844604669 -y 165.94210181661978 -Z 0 -z 40  -v circle -c black
n -t * -s 22  -x 236.13153991109297 -y 130.23302859171901 -Z 0 -z 40  -v circle -c black
n -t * -s 23  -x 33.139426276618345 -y 379.46994489965493 -Z 0 -z 40  -v circle -c black
n -t * -s 24  -x 189.20491062533341 -y 373.54630398263515 -Z 0 -z 40  -v circle -c black
V -t * -v 1.0a5 -a 0
W -t * -x 500 -y 500
A -t * -n 1 -p 0 -o 0x7fffffff -c 30 -a 1
A -t * -h 1 -m 1073741823 -s 0
