s 0.029290548 _1_ RTR  --- 0 message 32 [0 0 0 0] ------- [1:255 -1:255 32 0] 
s 0.029365548 _1_ MAC  --- 0 message 90 [0 ffffffff 1 800] ------- [1:255 -1:255 32 0] 
r 0.030085548 _0_ MAC  --- 0 message 32 [0 ffffffff 1 800] ------- [1:255 -1:255 32 0] 
r 0.030110548 _0_ RTR  --- 0 message 32 [0 ffffffff 1 800] ------- [1:255 -1:255 32 0] 
s 1.000000000 _0_ AGT  --- 1 tcp 40 [0 0 0 0] ------- [0:0 1:0 32 0] [0 0] 0 0
r 1.000000000 _0_ RTR  --- 1 tcp 40 [0 0 0 0] ------- [0:0 1:0 32 0] [0 0] 0 0
s 1.000000000 _0_ RTR  --- 1 tcp 60 [0 0 0 0] ------- [0:0 1:0 32 1] [0 0] 0 0
s 1.000255000 _0_ MAC  --- 0 ARP 86 [0 ffffffff 0 806] ------- [REQUEST 0/0 0/1]
r 1.000943000 _1_ MAC  --- 0 ARP 28 [0 ffffffff 0 806] ------- [REQUEST 0/0 0/1]
s 1.001358000 _1_ MAC  --- 0 RTS 44 [52e 0 1 0] 
r 1.001710000 _0_ MAC  --- 0 RTS 44 [52e 0 1 0] 
s 1.001720000 _0_ MAC  --- 0 CTS 38 [3f4 1 0 0] 
r 1.002024000 _1_ MAC  --- 0 CTS 38 [3f4 1 0 0] 
s 1.002034000 _1_ MAC  --- 0 ARP 86 [13a 0 1 806] ------- [REPLY 1/1 0/0]
r 1.002722000 _0_ MAC  --- 0 ARP 28 [13a 0 1 806] ------- [REPLY 1/1 0/0]
s 1.002732000 _0_ MAC  --- 0 ACK 38 [0 1 0 0] 
r 1.003036000 _1_ MAC  --- 0 ACK 38 [0 1 0 0] 
s 1.003346000 _0_ MAC  --- 0 RTS 44 [62e 1 0 0] 
r 1.003698000 _1_ MAC  --- 0 RTS 44 [62e 1 0 0] 
s 1.003708000 _1_ MAC  --- 0 CTS 38 [4f4 0 0 0] 
r 1.004012000 _0_ MAC  --- 0 CTS 38 [4f4 0 0 0] 
s 1.004022000 _0_ MAC  --- 1 tcp 118 [13a 1 0 800] ------- [0:0 1:0 32 1] [0 0] 0 0
r 1.004966000 _1_ MAC  --- 1 tcp 60 [13a 1 0 800] ------- [0:0 1:0 32 1] [0 0] 1 0
s 1.004976000 _1_ MAC  --- 0 ACK 38 [0 0 0 0] 
r 1.004991000 _1_ AGT  --- 1 tcp 60 [13a 1 0 800] ------- [0:0 1:0 32 1] [0 0] 1 0
s 1.004991000 _1_ AGT  --- 2 ack 40 [0 0 0 0] ------- [1:0 0:0 32 0] [0 0] 0 0
r 1.004991000 _1_ RTR  --- 2 ack 40 [0 0 0 0] ------- [1:0 0:0 32 0] [0 0] 0 0
r 1.005280000 _0_ MAC  --- 0 ACK 38 [0 0 0 0] 
M 1.10000 0 (0.00, 0.00, 0.00), (310.00, 10.00), 20.00
M 1.10000 1 (0.00, 0.00, 0.00), (10.00, 310.00), 20.00
s 1.112189378 _0_ RTR  --- 3 message 32 [0 0 0 0] ------- [0:255 -1:255 32 0] 
s 1.112624378 _0_ MAC  --- 3 message 90 [0 ffffffff 0 800] ------- [0:255 -1:255 32 0] 
r 1.113344379 _1_ MAC  --- 3 message 32 [0 ffffffff 0 800] ------- [0:255 -1:255 32 0] 
r 1.113369379 _1_ RTR  --- 3 message 32 [0 ffffffff 0 800] ------- [0:255 -1:255 32 0] 
s 1.113369379 _1_ RTR  --- 2 ack 80 [0 0 0 0] ------- [1:0 0:0 32 0] [0 0] 0 0
s 1.113604379 _1_ MAC  --- 0 RTS 44 [6ce 0 1 0] 
r 1.113956380 _0_ MAC  --- 0 RTS 44 [6ce 0 1 0] 
s 1.113966380 _0_ MAC  --- 0 CTS 38 [594 1 0 0] 
r 1.114270381 _1_ MAC  --- 0 CTS 38 [594 1 0 0] 
s 1.114280381 _1_ MAC  --- 2 ack 138 [13a 0 1 800] ------- [1:0 0:0 32 0] [0 0] 0 0
r 1.115384383 _0_ MAC  --- 2 ack 80 [13a 0 1 800] ------- [1:0 0:0 32 0] [0 0] 1 0
s 1.115394383 _0_ MAC  --- 0 ACK 38 [0 1 0 0] 
r 1.115409383 _0_ AGT  --- 2 ack 80 [13a 0 1 800] ------- [1:0 0:0 32 0] [0 0] 1 0
s 1.115409383 _0_ AGT  --- 4 tcp 1040 [0 0 0 0] ------- [0:0 1:0 32 0] [1 0] 0 0
r 1.115409383 _0_ RTR  --- 4 tcp 1040 [0 0 0 0] ------- [0:0 1:0 32 0] [1 0] 0 0
s 1.115409383 _0_ RTR  --- 4 tcp 1060 [0 0 0 0] ------- [0:0 1:0 32 1] [1 0] 0 0
s 1.115409383 _0_ AGT  --- 5 tcp 1040 [0 0 0 0] ------- [0:0 1:0 32 0] [2 0] 0 0
r 1.115409383 _0_ RTR  --- 5 tcp 1040 [0 0 0 0] ------- [0:0 1:0 32 0] [2 0] 0 0
s 1.115409383 _0_ RTR  --- 5 tcp 1060 [0 0 0 0] ------- [0:0 1:0 32 1] [2 0] 0 0
r 1.115698384 _1_ MAC  --- 0 ACK 38 [0 1 0 0] 
s 1.115788383 _0_ MAC  --- 0 RTS 44 [256e 1 0 0] 
r 1.116140384 _1_ MAC  --- 0 RTS 44 [256e 1 0 0] 
s 1.116150384 _1_ MAC  --- 0 CTS 38 [2434 0 0 0] 
r 1.116454385 _0_ MAC  --- 0 CTS 38 [2434 0 0 0] 
s 1.116464385 _0_ MAC  --- 4 tcp 1118 [13a 1 0 800] ------- [0:0 1:0 32 1] [1 0] 0 0
r 1.125408387 _1_ MAC  --- 4 tcp 1060 [13a 1 0 800] ------- [0:0 1:0 32 1] [1 0] 1 0
s 1.125418387 _1_ MAC  --- 0 ACK 38 [0 0 0 0] 
r 1.125433387 _1_ AGT  --- 4 tcp 1060 [13a 1 0 800] ------- [0:0 1:0 32 1] [1 0] 1 0
s 1.125433387 _1_ AGT  --- 6 ack 40 [0 0 0 0] ------- [1:0 0:0 32 0] [1 0] 0 0
r 1.125433387 _1_ RTR  --- 6 ack 40 [0 0 0 0] ------- [1:0 0:0 32 0] [1 0] 0 0
s 1.125433387 _1_ RTR  --- 6 ack 60 [0 0 0 0] ------- [1:0 0:0 32 0] [1 0] 0 0
r 1.125722389 _0_ MAC  --- 0 ACK 38 [0 0 0 0] 
s 1.126112389 _0_ MAC  --- 0 RTS 44 [256e 1 0 0] 
r 1.126464392 _1_ MAC  --- 0 RTS 44 [256e 1 0 0] 
s 1.126474392 _1_ MAC  --- 0 CTS 38 [2434 0 0 0] 
r 1.126778394 _0_ MAC  --- 0 CTS 38 [2434 0 0 0] 
s 1.126788394 _0_ MAC  --- 5 tcp 1118 [13a 1 0 800] ------- [0:0 1:0 32 1] [2 0] 0 0
r 1.135732396 _1_ MAC  --- 5 tcp 1060 [13a 1 0 800] ------- [0:0 1:0 32 1] [2 0] 1 0
s 1.135742396 _1_ MAC  --- 0 ACK 38 [0 0 0 0] 
r 1.135757396 _1_ AGT  --- 5 tcp 1060 [13a 1 0 800] ------- [0:0 1:0 32 1] [2 0] 1 0
s 1.135757396 _1_ AGT  --- 7 ack 40 [0 0 0 0] ------- [1:0 0:0 32 0] [2 0] 0 0
r 1.135757396 _1_ RTR  --- 7 ack 40 [0 0 0 0] ------- [1:0 0:0 32 0] [2 0] 0 0
s 1.135757396 _1_ RTR  --- 7 ack 60 [0 0 0 0] ------- [1:0 0:0 32 0] [2 0] 0 0
r 1.136046400 _0_ MAC  --- 0 ACK 38 [0 0 0 0] 
s 1.136196396 _1_ MAC  --- 0 RTS 44 [62e 0 1 0] 
r 1.136548400 _0_ MAC  --- 0 RTS 44 [62e 0 1 0] 
s 1.136558400 _0_ MAC  --- 0 CTS 38 [4f4 1 0 0] 
r 1.136862403 _1_ MAC  --- 0 CTS 38 [4f4 1 0 0] 
s 1.136872403 _1_ MAC  --- 6 ack 118 [13a 0 1 800] ------- [1:0 0:0 32 0] [1 0] 0 0
r 1.137816406 _0_ MAC  --- 6 ack 60 [13a 0 1 800] ------- [1:0 0:0 32 0] [1 0] 1 0
s 1.137826406 _0_ MAC  --- 0 ACK 38 [0 1 0 0] 
r 1.137841406 _0_ AGT  --- 6 ack 60 [13a 0 1 800] ------- [1:0 0:0 32 0] [1 0] 1 0
s 1.137841406 _0_ AGT  --- 8 tcp 1040 [0 0 0 0] ------- [0:0 1:0 32 0] [3 0] 0 0
r 1.137841406 _0_ RTR  --- 8 tcp 1040 [0 0 0 0] ------- [0:0 1:0 32 0] [3 0] 0 0
s 1.137841406 _0_ RTR  --- 8 tcp 1060 [0 0 0 0] ------- [0:0 1:0 32 1] [3 0] 0 0
s 1.137841406 _0_ AGT  --- 9 tcp 1040 [0 0 0 0] ------- [0:0 1:0 32 0] [4 0] 0 0
r 1.137841406 _0_ RTR  --- 9 tcp 1040 [0 0 0 0] ------- [0:0 1:0 32 0] [4 0] 0 0
s 1.137841406 _0_ RTR  --- 9 tcp 1060 [0 0 0 0] ------- [0:0 1:0 32 1] [4 0] 0 0
r 1.138130410 _1_ MAC  --- 0 ACK 38 [0 1 0 0] 
s 1.138380410 _1_ MAC  --- 0 RTS 44 [62e 0 1 0] 
r 1.138732413 _0_ MAC  --- 0 RTS 44 [62e 0 1 0] 
s 1.138742413 _0_ MAC  --- 0 CTS 38 [4f4 1 0 0] 
r 1.139046417 _1_ MAC  --- 0 CTS 38 [4f4 1 0 0] 
s 1.139056417 _1_ MAC  --- 7 ack 118 [13a 0 1 800] ------- [1:0 0:0 32 0] [2 0] 0 0
r 1.140000421 _0_ MAC  --- 7 ack 60 [13a 0 1 800] ------- [1:0 0:0 32 0] [2 0] 1 0
s 1.140010421 _0_ MAC  --- 0 ACK 38 [0 1 0 0] 
r 1.140025421 _0_ AGT  --- 7 ack 60 [13a 0 1 800] ------- [1:0 0:0 32 0] [2 0] 1 0
s 1.140025421 _0_ AGT  --- 10 tcp 1040 [0 0 0 0] ------- [0:0 1:0 32 0] [5 0] 0 0
r 1.140025421 _0_ RTR  --- 10 tcp 1040 [0 0 0 0] ------- [0:0 1:0 32 0] [5 0] 0 0
s 1.140025421 _0_ RTR  --- 10 tcp 1060 [0 0 0 0] ------- [0:0 1:0 32 1] [5 0] 0 0
s 1.140025421 _0_ AGT  --- 11 tcp 1040 [0 0 0 0] ------- [0:0 1:0 32 0] [6 0] 0 0
r 1.140025421 _0_ RTR  --- 11 tcp 1040 [0 0 0 0] ------- [0:0 1:0 32 0] [6 0] 0 0
s 1.140025421 _0_ RTR  --- 11 tcp 1060 [0 0 0 0] ------- [0:0 1:0 32 1] [6 0] 0 0
r 1.140314424 _1_ MAC  --- 0 ACK 38 [0 1 0 0] 
s 1.140384421 _0_ MAC  --- 0 RTS 44 [256e 1 0 0] 
r 1.140736424 _1_ MAC  --- 0 RTS 44 [256e 1 0 0] 
s 1.140746424 _1_ MAC  --- 0 CTS 38 [2434 0 0 0] 
r 1.141050428 _0_ MAC  --- 0 CTS 38 [2434 0 0 0] 
s 1.141060428 _0_ MAC  --- 8 tcp 1118 [13a 1 0 800] ------- [0:0 1:0 32 1] [3 0] 0 0
r 1.150004432 _1_ MAC  --- 8 tcp 1060 [13a 1 0 800] ------- [0:0 1:0 32 1] [3 0] 1 0
s 1.150014432 _1_ MAC  --- 0 ACK 38 [0 0 0 0] 
r 1.150029432 _1_ AGT  --- 8 tcp 1060 [13a 1 0 800] ------- [0:0 1:0 32 1] [3 0] 1 0
s 1.150029432 _1_ AGT  --- 12 ack 40 [0 0 0 0] ------- [1:0 0:0 32 0] [3 0] 0 0
r 1.150029432 _1_ RTR  --- 12 ack 40 [0 0 0 0] ------- [1:0 0:0 32 0] [3 0] 0 0
s 1.150029432 _1_ RTR  --- 12 ack 60 [0 0 0 0] ------- [1:0 0:0 32 0] [3 0] 0 0
r 1.150318436 _0_ MAC  --- 0 ACK 38 [0 0 0 0] 
s 1.150388436 _0_ MAC  --- 0 RTS 44 [256e 1 0 0] 
r 1.150740441 _1_ MAC  --- 0 RTS 44 [256e 1 0 0] 
s 1.150750441 _1_ MAC  --- 0 CTS 38 [2434 0 0 0] 
r 1.151054445 _0_ MAC  --- 0 CTS 38 [2434 0 0 0] 
s 1.151064445 _0_ MAC  --- 9 tcp 1118 [13a 1 0 800] ------- [0:0 1:0 32 1] [4 0] 0 0
r 1.160008450 _1_ MAC  --- 9 tcp 1060 [13a 1 0 800] ------- [0:0 1:0 32 1] [4 0] 1 0
s 1.160018450 _1_ MAC  --- 0 ACK 38 [0 0 0 0] 
r 1.160033450 _1_ AGT  --- 9 tcp 1060 [13a 1 0 800] ------- [0:0 1:0 32 1] [4 0] 1 0
s 1.160033450 _1_ AGT  --- 13 ack 40 [0 0 0 0] ------- [1:0 0:0 32 0] [4 0] 0 0
r 1.160033450 _1_ RTR  --- 13 ack 40 [0 0 0 0] ------- [1:0 0:0 32 0] [4 0] 0 0
s 1.160033450 _1_ RTR  --- 13 ack 60 [0 0 0 0] ------- [1:0 0:0 32 0] [4 0] 0 0
r 1.160322456 _0_ MAC  --- 0 ACK 38 [0 0 0 0] 
s 1.160552450 _1_ MAC  --- 0 RTS 44 [62e 0 1 0] 
r 1.160904456 _0_ MAC  --- 0 RTS 44 [62e 0 1 0] 
s 1.160914456 _0_ MAC  --- 0 CTS 38 [4f4 1 0 0] 
r 1.161218461 _1_ MAC  --- 0 CTS 38 [4f4 1 0 0] 
s 1.161228461 _1_ MAC  --- 12 ack 118 [13a 0 1 800] ------- [1:0 0:0 32 0] [3 0] 0 0
r 1.162172467 _0_ MAC  --- 12 ack 60 [13a 0 1 800] ------- [1:0 0:0 32 0] [3 0] 1 0
s 1.162182467 _0_ MAC  --- 0 ACK 38 [0 1 0 0] 
r 1.162197467 _0_ AGT  --- 12 ack 60 [13a 0 1 800] ------- [1:0 0:0 32 0] [3 0] 1 0
s 1.162197467 _0_ AGT  --- 14 tcp 1040 [0 0 0 0] ------- [0:0 1:0 32 0] [7 0] 0 0
r 1.162197467 _0_ RTR  --- 14 tcp 1040 [0 0 0 0] ------- [0:0 1:0 32 0] [7 0] 0 0
s 1.162197467 _0_ RTR  --- 14 tcp 1060 [0 0 0 0] ------- [0:0 1:0 32 1] [7 0] 0 0
s 1.162197467 _0_ AGT  --- 15 tcp 1040 [0 0 0 0] ------- [0:0 1:0 32 0] [8 0] 0 0
r 1.162197467 _0_ RTR  --- 15 tcp 1040 [0 0 0 0] ------- [0:0 1:0 32 0] [8 0] 0 0
s 1.162197467 _0_ RTR  --- 15 tcp 1060 [0 0 0 0] ------- [0:0 1:0 32 1] [8 0] 0 0
r 1.162486472 _1_ MAC  --- 0 ACK 38 [0 1 0 0] 
s 1.162596467 _0_ MAC  --- 0 RTS 44 [256e 1 0 0] 
r 1.162948472 _1_ MAC  --- 0 RTS 44 [256e 1 0 0] 
s 1.162958472 _1_ MAC  --- 0 CTS 38 [2434 0 0 0] 
r 1.163262478 _0_ MAC  --- 0 CTS 38 [2434 0 0 0] 
s 1.163272478 _0_ MAC  --- 10 tcp 1118 [13a 1 0 800] ------- [0:0 1:0 32 1] [5 0] 0 0
r 1.172216484 _1_ MAC  --- 10 tcp 1060 [13a 1 0 800] ------- [0:0 1:0 32 1] [5 0] 1 0
s 1.172226484 _1_ MAC  --- 0 ACK 38 [0 0 0 0] 
r 1.172241484 _1_ AGT  --- 10 tcp 1060 [13a 1 0 800] ------- [0:0 1:0 32 1] [5 0] 1 0
s 1.172241484 _1_ AGT  --- 16 ack 40 [0 0 0 0] ------- [1:0 0:0 32 0] [5 0] 0 0
r 1.172241484 _1_ RTR  --- 16 ack 40 [0 0 0 0] ------- [1:0 0:0 32 0] [5 0] 0 0
s 1.172241484 _1_ RTR  --- 16 ack 60 [0 0 0 0] ------- [1:0 0:0 32 0] [5 0] 0 0
r 1.172530491 _0_ MAC  --- 0 ACK 38 [0 0 0 0] 
s 1.172760491 _0_ MAC  --- 0 RTS 44 [256e 1 0 0] 
r 1.173112497 _1_ MAC  --- 0 RTS 44 [256e 1 0 0] 
s 1.173122497 _1_ MAC  --- 0 CTS 38 [2434 0 0 0] 
r 1.173426504 _0_ MAC  --- 0 CTS 38 [2434 0 0 0] 
s 1.173436504 _0_ MAC  --- 11 tcp 1118 [13a 1 0 800] ------- [0:0 1:0 32 1] [6 0] 0 0
r 1.182380511 _1_ MAC  --- 11 tcp 1060 [13a 1 0 800] ------- [0:0 1:0 32 1] [6 0] 1 0
s 1.182390511 _1_ MAC  --- 0 ACK 38 [0 0 0 0] 
r 1.182405511 _1_ AGT  --- 11 tcp 1060 [13a 1 0 800] ------- [0:0 1:0 32 1] [6 0] 1 0
s 1.182405511 _1_ AGT  --- 17 ack 40 [0 0 0 0] ------- [1:0 0:0 32 0] [6 0] 0 0
r 1.182405511 _1_ RTR  --- 17 ack 40 [0 0 0 0] ------- [1:0 0:0 32 0] [6 0] 0 0
s 1.182405511 _1_ RTR  --- 17 ack 60 [0 0 0 0] ------- [1:0 0:0 32 0] [6 0] 0 0
r 1.182694518 _0_ MAC  --- 0 ACK 38 [0 0 0 0] 
s 1.182944511 _1_ MAC  --- 0 RTS 44 [62e 0 1 0] 
r 1.183296518 _0_ MAC  --- 0 RTS 44 [62e 0 1 0] 
s 1.183306518 _0_ MAC  --- 0 CTS 38 [4f4 1 0 0] 
r 1.183610526 _1_ MAC  --- 0 CTS 38 [4f4 1 0 0] 
s 1.183620526 _1_ MAC  --- 13 ack 118 [13a 0 1 800] ------- [1:0 0:0 32 0] [4 0] 0 0
r 1.184564533 _0_ MAC  --- 13 ack 60 [13a 0 1 800] ------- [1:0 0:0 32 0] [4 0] 1 0
s 1.184574533 _0_ MAC  --- 0 ACK 38 [0 1 0 0] 
r 1.184589533 _0_ AGT  --- 13 ack 60 [13a 0 1 800] ------- [1:0 0:0 32 0] [4 0] 1 0
s 1.184589533 _0_ AGT  --- 18 tcp 1040 [0 0 0 0] ------- [0:0 1:0 32 0] [9 0] 0 0
r 1.184589533 _0_ RTR  --- 18 tcp 1040 [0 0 0 0] ------- [0:0 1:0 32 0] [9 0] 0 0
s 1.184589533 _0_ RTR  --- 18 tcp 1060 [0 0 0 0] ------- [0:0 1:0 32 1] [9 0] 0 0
s 1.184589533 _0_ AGT  --- 19 tcp 1040 [0 0 0 0] ------- [0:0 1:0 32 0] [10 0] 0 0
r 1.184589533 _0_ RTR  --- 19 tcp 1040 [0 0 0 0] ------- [0:0 1:0 32 0] [10 0] 0 0
s 1.184589533 _0_ RTR  --- 19 tcp 1060 [0 0 0 0] ------- [0:0 1:0 32 1] [10 0] 0 0
r 1.184878541 _1_ MAC  --- 0 ACK 38 [0 1 0 0] 
s 1.185308533 _0_ MAC  --- 0 RTS 44 [256e 1 0 0] 
r 1.185660541 _1_ MAC  --- 0 RTS 44 [256e 1 0 0] 
s 1.185670541 _1_ MAC  --- 0 CTS 38 [2434 0 0 0] 
r 1.185974549 _0_ MAC  --- 0 CTS 38 [2434 0 0 0] 
s 1.185984549 _0_ MAC  --- 14 tcp 1118 [13a 1 0 800] ------- [0:0 1:0 32 1] [7 0] 0 0
r 1.194928557 _1_ MAC  --- 14 tcp 1060 [13a 1 0 800] ------- [0:0 1:0 32 1] [7 0] 1 0
s 1.194938557 _1_ MAC  --- 0 ACK 38 [0 0 0 0] 
r 1.194953557 _1_ AGT  --- 14 tcp 1060 [13a 1 0 800] ------- [0:0 1:0 32 1] [7 0] 1 0
s 1.194953557 _1_ AGT  --- 20 ack 40 [0 0 0 0] ------- [1:0 0:0 32 0] [7 0] 0 0
r 1.194953557 _1_ RTR  --- 20 ack 40 [0 0 0 0] ------- [1:0 0:0 32 0] [7 0] 0 0
s 1.194953557 _1_ RTR  --- 20 ack 60 [0 0 0 0] ------- [1:0 0:0 32 0] [7 0] 0 0
r 1.195242565 _0_ MAC  --- 0 ACK 38 [0 0 0 0] 
s 1.195312557 _1_ MAC  --- 0 RTS 44 [62e 0 1 0] 
r 1.195664565 _0_ MAC  --- 0 RTS 44 [62e 0 1 0] 
s 1.195674565 _0_ MAC  --- 0 CTS 38 [4f4 1 0 0] 
r 1.195978574 _1_ MAC  --- 0 CTS 38 [4f4 1 0 0] 
s 1.195988574 _1_ MAC  --- 16 ack 118 [13a 0 1 800] ------- [1:0 0:0 32 0] [5 0] 0 0
r 1.196932583 _0_ MAC  --- 16 ack 60 [13a 0 1 800] ------- [1:0 0:0 32 0] [5 0] 1 0
s 1.196942583 _0_ MAC  --- 0 ACK 38 [0 1 0 0] 
r 1.196957583 _0_ AGT  --- 16 ack 60 [13a 0 1 800] ------- [1:0 0:0 32 0] [5 0] 1 0
s 1.196957583 _0_ AGT  --- 21 tcp 1040 [0 0 0 0] ------- [0:0 1:0 32 0] [11 0] 0 0
r 1.196957583 _0_ RTR  --- 21 tcp 1040 [0 0 0 0] ------- [0:0 1:0 32 0] [11 0] 0 0
s 1.196957583 _0_ RTR  --- 21 tcp 1060 [0 0 0 0] ------- [0:0 1:0 32 1] [11 0] 0 0
s 1.196957583 _0_ AGT  --- 22 tcp 1040 [0 0 0 0] ------- [0:0 1:0 32 0] [12 0] 0 0
r 1.196957583 _0_ RTR  --- 22 tcp 1040 [0 0 0 0] ------- [0:0 1:0 32 0] [12 0] 0 0
s 1.196957583 _0_ RTR  --- 22 tcp 1060 [0 0 0 0] ------- [0:0 1:0 32 1] [12 0] 0 0
r 1.197246592 _1_ MAC  --- 0 ACK 38 [0 1 0 0] 
s 1.197656592 _1_ MAC  --- 0 RTS 44 [62e 0 1 0] 
r 1.198008601 _0_ MAC  --- 0 RTS 44 [62e 0 1 0] 
s 1.198018601 _0_ MAC  --- 0 CTS 38 [4f4 1 0 0] 
r 1.198322610 _1_ MAC  --- 0 CTS 38 [4f4 1 0 0] 
s 1.198332610 _1_ MAC  --- 17 ack 118 [13a 0 1 800] ------- [1:0 0:0 32 0] [6 0] 0 0
r 1.199276619 _0_ MAC  --- 17 ack 60 [13a 0 1 800] ------- [1:0 0:0 32 0] [6 0] 1 0
s 1.199286619 _0_ MAC  --- 0 ACK 38 [0 1 0 0] 
r 1.199301619 _0_ AGT  --- 17 ack 60 [13a 0 1 800] ------- [1:0 0:0 32 0] [6 0] 1 0
s 1.199301619 _0_ AGT  --- 23 tcp 1040 [0 0 0 0] ------- [0:0 1:0 32 0] [13 0] 0 0
r 1.199301619 _0_ RTR  --- 23 tcp 1040 [0 0 0 0] ------- [0:0 1:0 32 0] [13 0] 0 0
s 1.199301619 _0_ RTR  --- 23 tcp 1060 [0 0 0 0] ------- [0:0 1:0 32 1] [13 0] 0 0
s 1.199301619 _0_ AGT  --- 24 tcp 1040 [0 0 0 0] ------- [0:0 1:0 32 0] [14 0] 0 0
r 1.199301619 _0_ RTR  --- 24 tcp 1040 [0 0 0 0] ------- [0:0 1:0 32 0] [14 0] 0 0
s 1.199301619 _0_ RTR  --- 24 tcp 1060 [0 0 0 0] ------- [0:0 1:0 32 1] [14 0] 0 0
r 1.199590628 _1_ MAC  --- 0 ACK 38 [0 1 0 0] 
s 1.199680628 _1_ MAC  --- 0 RTS 44 [62e 0 1 0] 
r 1.200032637 _0_ MAC  --- 0 RTS 44 [62e 0 1 0] 
s 1.200042637 _0_ MAC  --- 0 CTS 38 [4f4 1 0 0] 
r 1.200346646 _1_ MAC  --- 0 CTS 38 [4f4 1 0 0] 
s 1.200356646 _1_ MAC  --- 20 ack 118 [13a 0 1 800] ------- [1:0 0:0 32 0] [7 0] 0 0
r 1.201300655 _0_ MAC  --- 20 ack 60 [13a 0 1 800] ------- [1:0 0:0 32 0] [7 0] 1 0
s 1.201310655 _0_ MAC  --- 0 ACK 38 [0 1 0 0] 
r 1.201325655 _0_ AGT  --- 20 ack 60 [13a 0 1 800] ------- [1:0 0:0 32 0] [7 0] 1 0
s 1.201325655 _0_ AGT  --- 25 tcp 1040 [0 0 0 0] ------- [0:0 1:0 32 0] [15 0] 0 0
r 1.201325655 _0_ RTR  --- 25 tcp 1040 [0 0 0 0] ------- [0:0 1:0 32 0] [15 0] 0 0
s 1.201325655 _0_ RTR  --- 25 tcp 1060 [0 0 0 0] ------- [0:0 1:0 32 1] [15 0] 0 0
s 1.201325655 _0_ AGT  --- 26 tcp 1040 [0 0 0 0] ------- [0:0 1:0 32 0] [16 0] 0 0
r 1.201325655 _0_ RTR  --- 26 tcp 1040 [0 0 0 0] ------- [0:0 1:0 32 0] [16 0] 0 0
s 1.201325655 _0_ RTR  --- 26 tcp 1060 [0 0 0 0] ------- [0:0 1:0 32 1] [16 0] 0 0
r 1.201614664 _1_ MAC  --- 0 ACK 38 [0 1 0 0] 
s 1.201784655 _0_ MAC  --- 0 RTS 44 [256e 1 0 0] 
r 1.202136664 _1_ MAC  --- 0 RTS 44 [256e 1 0 0] 
s 1.202146664 _1_ MAC  --- 0 CTS 38 [2434 0 0 0] 
r 1.202450674 _0_ MAC  --- 0 CTS 38 [2434 0 0 0] 
s 1.202460674 _0_ MAC  --- 15 tcp 1118 [13a 1 0 800] ------- [0:0 1:0 32 1] [8 0] 0 0
r 1.211404683 _1_ MAC  --- 15 tcp 1060 [13a 1 0 800] ------- [0:0 1:0 32 1] [8 0] 1 0
s 1.211414683 _1_ MAC  --- 0 ACK 38 [0 0 0 0] 
r 1.211429683 _1_ AGT  --- 15 tcp 1060 [13a 1 0 800] ------- [0:0 1:0 32 1] [8 0] 1 0
s 1.211429683 _1_ AGT  --- 27 ack 40 [0 0 0 0] ------- [1:0 0:0 32 0] [8 0] 0 0
r 1.211429683 _1_ RTR  --- 27 ack 40 [0 0 0 0] ------- [1:0 0:0 32 0] [8 0] 0 0
s 1.211429683 _1_ RTR  --- 27 ack 60 [0 0 0 0] ------- [1:0 0:0 32 0] [8 0] 0 0
r 1.211718693 _0_ MAC  --- 0 ACK 38 [0 0 0 0] 
s 1.211948683 _1_ MAC  --- 0 RTS 44 [62e 0 1 0] 
r 1.212300693 _0_ MAC  --- 0 RTS 44 [62e 0 1 0] 
s 1.212310693 _0_ MAC  --- 0 CTS 38 [4f4 1 0 0] 
r 1.212614703 _1_ MAC  --- 0 CTS 38 [4f4 1 0 0] 
s 1.212624703 _1_ MAC  --- 27 ack 118 [13a 0 1 800] ------- [1:0 0:0 32 0] [8 0] 0 0
r 1.213568714 _0_ MAC  --- 27 ack 60 [13a 0 1 800] ------- [1:0 0:0 32 0] [8 0] 1 0
s 1.213578714 _0_ MAC  --- 0 ACK 38 [0 1 0 0] 
r 1.213593714 _0_ AGT  --- 27 ack 60 [13a 0 1 800] ------- [1:0 0:0 32 0] [8 0] 1 0
s 1.213593714 _0_ AGT  --- 28 tcp 1040 [0 0 0 0] ------- [0:0 1:0 32 0] [17 0] 0 0
r 1.213593714 _0_ RTR  --- 28 tcp 1040 [0 0 0 0] ------- [0:0 1:0 32 0] [17 0] 0 0
s 1.213593714 _0_ RTR  --- 28 tcp 1060 [0 0 0 0] ------- [0:0 1:0 32 1] [17 0] 0 0
s 1.213593714 _0_ AGT  --- 29 tcp 1040 [0 0 0 0] ------- [0:0 1:0 32 0] [18 0] 0 0
r 1.213593714 _0_ RTR  --- 29 tcp 1040 [0 0 0 0] ------- [0:0 1:0 32 0] [18 0] 0 0
s 1.213593714 _0_ RTR  --- 29 tcp 1060 [0 0 0 0] ------- [0:0 1:0 32 1] [18 0] 0 0
r 1.213882724 _1_ MAC  --- 0 ACK 38 [0 1 0 0] 
s 1.214112714 _0_ MAC  --- 0 RTS 44 [256e 1 0 0] 
r 1.214464724 _1_ MAC  --- 0 RTS 44 [256e 1 0 0] 
s 1.214474724 _1_ MAC  --- 0 CTS 38 [2434 0 0 0] 
r 1.214778735 _0_ MAC  --- 0 CTS 38 [2434 0 0 0] 
s 1.214788735 _0_ MAC  --- 18 tcp 1118 [13a 1 0 800] ------- [0:0 1:0 32 1] [9 0] 0 0
r 1.223732745 _1_ MAC  --- 18 tcp 1060 [13a 1 0 800] ------- [0:0 1:0 32 1] [9 0] 1 0
s 1.223742745 _1_ MAC  --- 0 ACK 38 [0 0 0 0] 
r 1.223757745 _1_ AGT  --- 18 tcp 1060 [13a 1 0 800] ------- [0:0 1:0 32 1] [9 0] 1 0
s 1.223757745 _1_ AGT  --- 30 ack 40 [0 0 0 0] ------- [1:0 0:0 32 0] [9 0] 0 0
r 1.223757745 _1_ RTR  --- 30 ack 40 [0 0 0 0] ------- [1:0 0:0 32 0] [9 0] 0 0
s 1.223757745 _1_ RTR  --- 30 ack 60 [0 0 0 0] ------- [1:0 0:0 32 0] [9 0] 0 0
r 1.224046756 _0_ MAC  --- 0 ACK 38 [0 0 0 0] 
s 1.224176745 _1_ MAC  --- 0 RTS 44 [62e 0 1 0] 
r 1.224528756 _0_ MAC  --- 0 RTS 44 [62e 0 1 0] 
s 1.224538756 _0_ MAC  --- 0 CTS 38 [4f4 1 0 0] 
r 1.224842768 _1_ MAC  --- 0 CTS 38 [4f4 1 0 0] 
s 1.224852768 _1_ MAC  --- 30 ack 118 [13a 0 1 800] ------- [1:0 0:0 32 0] [9 0] 0 0
r 1.225796779 _0_ MAC  --- 30 ack 60 [13a 0 1 800] ------- [1:0 0:0 32 0] [9 0] 1 0
s 1.225806779 _0_ MAC  --- 0 ACK 38 [0 1 0 0] 
r 1.225821779 _0_ AGT  --- 30 ack 60 [13a 0 1 800] ------- [1:0 0:0 32 0] [9 0] 1 0
s 1.225821779 _0_ AGT  --- 31 tcp 1040 [0 0 0 0] ------- [0:0 1:0 32 0] [19 0] 0 0
r 1.225821779 _0_ RTR  --- 31 tcp 1040 [0 0 0 0] ------- [0:0 1:0 32 0] [19 0] 0 0
s 1.225821779 _0_ RTR  --- 31 tcp 1060 [0 0 0 0] ------- [0:0 1:0 32 1] [19 0] 0 0
s 1.225821779 _0_ AGT  --- 32 tcp 1040 [0 0 0 0] ------- [0:0 1:0 32 0] [20 0] 0 0
r 1.225821779 _0_ RTR  --- 32 tcp 1040 [0 0 0 0] ------- [0:0 1:0 32 0] [20 0] 0 0
s 1.225821779 _0_ RTR  --- 32 tcp 1060 [0 0 0 0] ------- [0:0 1:0 32 1] [20 0] 0 0
r 1.226110791 _1_ MAC  --- 0 ACK 38 [0 1 0 0] 
s 1.226360779 _0_ MAC  --- 0 RTS 44 [256e 1 0 0] 
r 1.226712791 _1_ MAC  --- 0 RTS 44 [256e 1 0 0] 
s 1.226722791 _1_ MAC  --- 0 CTS 38 [2434 0 0 0] 
r 1.227026802 _0_ MAC  --- 0 CTS 38 [2434 0 0 0] 
s 1.227036802 _0_ MAC  --- 19 tcp 1118 [13a 1 0 800] ------- [0:0 1:0 32 1] [10 0] 0 0
r 1.235980814 _1_ MAC  --- 19 tcp 1060 [13a 1 0 800] ------- [0:0 1:0 32 1] [10 0] 1 0
s 1.235990814 _1_ MAC  --- 0 ACK 38 [0 0 0 0] 
r 1.236005814 _1_ AGT  --- 19 tcp 1060 [13a 1 0 800] ------- [0:0 1:0 32 1] [10 0] 1 0
s 1.236005814 _1_ AGT  --- 33 ack 40 [0 0 0 0] ------- [1:0 0:0 32 0] [10 0] 0 0
r 1.236005814 _1_ RTR  --- 33 ack 40 [0 0 0 0] ------- [1:0 0:0 32 0] [10 0] 0 0
s 1.236005814 _1_ RTR  --- 33 ack 60 [0 0 0 0] ------- [1:0 0:0 32 0] [10 0] 0 0
r 1.236294826 _0_ MAC  --- 0 ACK 38 [0 0 0 0] 
s 1.236444814 _1_ MAC  --- 0 RTS 44 [62e 0 1 0] 
r 1.236796826 _0_ MAC  --- 0 RTS 44 [62e 0 1 0] 
s 1.236806826 _0_ MAC  --- 0 CTS 38 [4f4 1 0 0] 
r 1.237110839 _1_ MAC  --- 0 CTS 38 [4f4 1 0 0] 
s 1.237120839 _1_ MAC  --- 33 ack 118 [13a 0 1 800] ------- [1:0 0:0 32 0] [10 0] 0 0
r 1.238064851 _0_ MAC  --- 33 ack 60 [13a 0 1 800] ------- [1:0 0:0 32 0] [10 0] 1 0
s 1.238074851 _0_ MAC  --- 0 ACK 38 [0 1 0 0] 
r 1.238089851 _0_ AGT  --- 33 ack 60 [13a 0 1 800] ------- [1:0 0:0 32 0] [10 0] 1 0
s 1.238089851 _0_ AGT  --- 34 tcp 1040 [0 0 0 0] ------- [0:0 1:0 32 0] [21 0] 0 0
r 1.238089851 _0_ RTR  --- 34 tcp 1040 [0 0 0 0] ------- [0:0 1:0 32 0] [21 0] 0 0
s 1.238089851 _0_ RTR  --- 34 tcp 1060 [0 0 0 0] ------- [0:0 1:0 32 1] [21 0] 0 0
s 1.238089851 _0_ AGT  --- 35 tcp 1040 [0 0 0 0] ------- [0:0 1:0 32 0] [22 0] 0 0
r 1.238089851 _0_ RTR  --- 35 tcp 1040 [0 0 0 0] ------- [0:0 1:0 32 0] [22 0] 0 0
s 1.238089851 _0_ RTR  --- 35 tcp 1060 [0 0 0 0] ------- [0:0 1:0 32 1] [22 0] 0 0
r 1.238378864 _1_ MAC  --- 0 ACK 38 [0 1 0 0] 
s 1.238848851 _0_ MAC  --- 0 RTS 44 [256e 1 0 0] 
r 1.239200864 _1_ MAC  --- 0 RTS 44 [256e 1 0 0] 
s 1.239210864 _1_ MAC  --- 0 CTS 38 [2434 0 0 0] 
r 1.239514877 _0_ MAC  --- 0 CTS 38 [2434 0 0 0] 
s 1.239524877 _0_ MAC  --- 21 tcp 1118 [13a 1 0 800] ------- [0:0 1:0 32 1] [11 0] 0 0
r 1.248468889 _1_ MAC  --- 21 tcp 1060 [13a 1 0 800] ------- [0:0 1:0 32 1] [11 0] 1 0
s 1.248478889 _1_ MAC  --- 0 ACK 38 [0 0 0 0] 
r 1.248493889 _1_ AGT  --- 21 tcp 1060 [13a 1 0 800] ------- [0:0 1:0 32 1] [11 0] 1 0
s 1.248493889 _1_ AGT  --- 36 ack 40 [0 0 0 0] ------- [1:0 0:0 32 0] [11 0] 0 0
r 1.248493889 _1_ RTR  --- 36 ack 40 [0 0 0 0] ------- [1:0 0:0 32 0] [11 0] 0 0
s 1.248493889 _1_ RTR  --- 36 ack 60 [0 0 0 0] ------- [1:0 0:0 32 0] [11 0] 0 0
r 1.248782903 _0_ MAC  --- 0 ACK 38 [0 0 0 0] 
s 1.249032889 _1_ MAC  --- 0 RTS 44 [62e 0 1 0] 
r 1.249384903 _0_ MAC  --- 0 RTS 44 [62e 0 1 0] 
s 1.249394903 _0_ MAC  --- 0 CTS 38 [4f4 1 0 0] 
r 1.249698916 _1_ MAC  --- 0 CTS 38 [4f4 1 0 0] 
s 1.249708916 _1_ MAC  --- 36 ack 118 [13a 0 1 800] ------- [1:0 0:0 32 0] [11 0] 0 0
r 1.250652930 _0_ MAC  --- 36 ack 60 [13a 0 1 800] ------- [1:0 0:0 32 0] [11 0] 1 0
s 1.250662930 _0_ MAC  --- 0 ACK 38 [0 1 0 0] 
r 1.250677930 _0_ AGT  --- 36 ack 60 [13a 0 1 800] ------- [1:0 0:0 32 0] [11 0] 1 0
s 1.250677930 _0_ AGT  --- 37 tcp 1040 [0 0 0 0] ------- [0:0 1:0 32 0] [23 0] 0 0
r 1.250677930 _0_ RTR  --- 37 tcp 1040 [0 0 0 0] ------- [0:0 1:0 32 0] [23 0] 0 0
s 1.250677930 _0_ RTR  --- 37 tcp 1060 [0 0 0 0] ------- [0:0 1:0 32 1] [23 0] 0 0
s 1.250677930 _0_ AGT  --- 38 tcp 1040 [0 0 0 0] ------- [0:0 1:0 32 0] [24 0] 0 0
r 1.250677930 _0_ RTR  --- 38 tcp 1040 [0 0 0 0] ------- [0:0 1:0 32 0] [24 0] 0 0
s 1.250677930 _0_ RTR  --- 38 tcp 1060 [0 0 0 0] ------- [0:0 1:0 32 1] [24 0] 0 0
r 1.250966944 _1_ MAC  --- 0 ACK 38 [0 1 0 0] 
s 1.251396930 _0_ MAC  --- 0 RTS 44 [256e 1 0 0] 
r 1.251748944 _1_ MAC  --- 0 RTS 44 [256e 1 0 0] 
s 1.251758944 _1_ MAC  --- 0 CTS 38 [2434 0 0 0] 
r 1.252062958 _0_ MAC  --- 0 CTS 38 [2434 0 0 0] 
s 1.252072958 _0_ MAC  --- 22 tcp 1118 [13a 1 0 800] ------- [0:0 1:0 32 1] [12 0] 0 0
r 1.261016972 _1_ MAC  --- 22 tcp 1060 [13a 1 0 800] ------- [0:0 1:0 32 1] [12 0] 1 0
s 1.261026972 _1_ MAC  --- 0 ACK 38 [0 0 0 0] 
r 1.261041972 _1_ AGT  --- 22 tcp 1060 [13a 1 0 800] ------- [0:0 1:0 32 1] [12 0] 1 0
s 1.261041972 _1_ AGT  --- 39 ack 40 [0 0 0 0] ------- [1:0 0:0 32 0] [12 0] 0 0
r 1.261041972 _1_ RTR  --- 39 ack 40 [0 0 0 0] ------- [1:0 0:0 32 0] [12 0] 0 0
s 1.261041972 _1_ RTR  --- 39 ack 60 [0 0 0 0] ------- [1:0 0:0 32 0] [12 0] 0 0
r 1.261330986 _0_ MAC  --- 0 ACK 38 [0 0 0 0] 
s 1.261500972 _1_ MAC  --- 0 RTS 44 [62e 0 1 0] 
r 1.261852986 _0_ MAC  --- 0 RTS 44 [62e 0 1 0] 
s 1.261862986 _0_ MAC  --- 0 CTS 38 [4f4 1 0 0] 
r 1.262167001 _1_ MAC  --- 0 CTS 38 [4f4 1 0 0] 
s 1.262177001 _1_ MAC  --- 39 ack 118 [13a 0 1 800] ------- [1:0 0:0 32 0] [12 0] 0 0
r 1.263121016 _0_ MAC  --- 39 ack 60 [13a 0 1 800] ------- [1:0 0:0 32 0] [12 0] 1 0
s 1.263131016 _0_ MAC  --- 0 ACK 38 [0 1 0 0] 
r 1.263146016 _0_ AGT  --- 39 ack 60 [13a 0 1 800] ------- [1:0 0:0 32 0] [12 0] 1 0
s 1.263146016 _0_ AGT  --- 40 tcp 1040 [0 0 0 0] ------- [0:0 1:0 32 0] [25 0] 0 0
r 1.263146016 _0_ RTR  --- 40 tcp 1040 [0 0 0 0] ------- [0:0 1:0 32 0] [25 0] 0 0
s 1.263146016 _0_ RTR  --- 40 tcp 1060 [0 0 0 0] ------- [0:0 1:0 32 1] [25 0] 0 0
s 1.263146016 _0_ AGT  --- 41 tcp 1040 [0 0 0 0] ------- [0:0 1:0 32 0] [26 0] 0 0
r 1.263146016 _0_ RTR  --- 41 tcp 1040 [0 0 0 0] ------- [0:0 1:0 32 0] [26 0] 0 0
s 1.263146016 _0_ RTR  --- 41 tcp 1060 [0 0 0 0] ------- [0:0 1:0 32 1] [26 0] 0 0
r 1.263435031 _1_ MAC  --- 0 ACK 38 [0 1 0 0] 
s 1.263705016 _0_ MAC  --- 0 RTS 44 [256e 1 0 0] 
r 1.264057031 _1_ MAC  --- 0 RTS 44 [256e 1 0 0] 
s 1.264067031 _1_ MAC  --- 0 CTS 38 [2434 0 0 0] 
r 1.264371046 _0_ MAC  --- 0 CTS 38 [2434 0 0 0] 
s 1.264381046 _0_ MAC  --- 23 tcp 1118 [13a 1 0 800] ------- [0:0 1:0 32 1] [13 0] 0 0
r 1.273325061 _1_ MAC  --- 23 tcp 1060 [13a 1 0 800] ------- [0:0 1:0 32 1] [13 0] 1 0
s 1.273335061 _1_ MAC  --- 0 ACK 38 [0 0 0 0] 
r 1.273350061 _1_ AGT  --- 23 tcp 1060 [13a 1 0 800] ------- [0:0 1:0 32 1] [13 0] 1 0
s 1.273350061 _1_ AGT  --- 42 ack 40 [0 0 0 0] ------- [1:0 0:0 32 0] [13 0] 0 0
r 1.273350061 _1_ RTR  --- 42 ack 40 [0 0 0 0] ------- [1:0 0:0 32 0] [13 0] 0 0
s 1.273350061 _1_ RTR  --- 42 ack 60 [0 0 0 0] ------- [1:0 0:0 32 0] [13 0] 0 0
r 1.273639077 _0_ MAC  --- 0 ACK 38 [0 0 0 0] 
s 1.273969061 _1_ MAC  --- 0 RTS 44 [62e 0 1 0] 
s 1.273969077 _0_ MAC  --- 0 RTS 44 [256e 1 0 0] 
s 1.275215077 _0_ MAC  --- 0 RTS 44 [256e 1 0 0] 
r 1.275567093 _1_ MAC  --- 0 RTS 44 [256e 1 0 0] 
s 1.275577093 _1_ MAC  --- 0 CTS 38 [2434 0 0 0] 
r 1.275881109 _0_ MAC  --- 0 CTS 38 [2434 0 0 0] 
s 1.275891109 _0_ MAC  --- 24 tcp 1118 [13a 1 0 800] ------- [0:0 1:0 32 1] [14 0] 0 0
r 1.284835125 _1_ MAC  --- 24 tcp 1060 [13a 1 0 800] ------- [0:0 1:0 32 1] [14 0] 1 0
s 1.284845125 _1_ MAC  --- 0 ACK 38 [0 0 0 0] 
r 1.284860125 _1_ AGT  --- 24 tcp 1060 [13a 1 0 800] ------- [0:0 1:0 32 1] [14 0] 1 0
s 1.284860125 _1_ AGT  --- 43 ack 40 [0 0 0 0] ------- [1:0 0:0 32 0] [14 0] 0 0
r 1.284860125 _1_ RTR  --- 43 ack 40 [0 0 0 0] ------- [1:0 0:0 32 0] [14 0] 0 0
s 1.284860125 _1_ RTR  --- 43 ack 60 [0 0 0 0] ------- [1:0 0:0 32 0] [14 0] 0 0
r 1.285149142 _0_ MAC  --- 0 ACK 38 [0 0 0 0] 
s 1.285659125 _1_ MAC  --- 0 RTS 44 [62e 0 1 0] 
r 1.286011142 _0_ MAC  --- 0 RTS 44 [62e 0 1 0] 
s 1.286021142 _0_ MAC  --- 0 CTS 38 [4f4 1 0 0] 
r 1.286325159 _1_ MAC  --- 0 CTS 38 [4f4 1 0 0] 
s 1.286335159 _1_ MAC  --- 42 ack 118 [13a 0 1 800] ------- [1:0 0:0 32 0] [13 0] 0 0
r 1.287279176 _0_ MAC  --- 42 ack 60 [13a 0 1 800] ------- [1:0 0:0 32 0] [13 0] 1 0
s 1.287289176 _0_ MAC  --- 0 ACK 38 [0 1 0 0] 
r 1.287304176 _0_ AGT  --- 42 ack 60 [13a 0 1 800] ------- [1:0 0:0 32 0] [13 0] 1 0
s 1.287304176 _0_ AGT  --- 44 tcp 1040 [0 0 0 0] ------- [0:0 1:0 32 0] [27 0] 0 0
r 1.287304176 _0_ RTR  --- 44 tcp 1040 [0 0 0 0] ------- [0:0 1:0 32 0] [27 0] 0 0
s 1.287304176 _0_ RTR  --- 44 tcp 1060 [0 0 0 0] ------- [0:0 1:0 32 1] [27 0] 0 0
s 1.287304176 _0_ AGT  --- 45 tcp 1040 [0 0 0 0] ------- [0:0 1:0 32 0] [28 0] 0 0
r 1.287304176 _0_ RTR  --- 45 tcp 1040 [0 0 0 0] ------- [0:0 1:0 32 0] [28 0] 0 0
s 1.287304176 _0_ RTR  --- 45 tcp 1060 [0 0 0 0] ------- [0:0 1:0 32 1] [28 0] 0 0
r 1.287593193 _1_ MAC  --- 0 ACK 38 [0 1 0 0] 
s 1.287643193 _1_ MAC  --- 0 RTS 44 [62e 0 1 0] 
r 1.287995210 _0_ MAC  --- 0 RTS 44 [62e 0 1 0] 
s 1.288005210 _0_ MAC  --- 0 CTS 38 [4f4 1 0 0] 
r 1.288309227 _1_ MAC  --- 0 CTS 38 [4f4 1 0 0] 
s 1.288319227 _1_ MAC  --- 43 ack 118 [13a 0 1 800] ------- [1:0 0:0 32 0] [14 0] 0 0
r 1.289263244 _0_ MAC  --- 43 ack 60 [13a 0 1 800] ------- [1:0 0:0 32 0] [14 0] 1 0
s 1.289273244 _0_ MAC  --- 0 ACK 38 [0 1 0 0] 
r 1.289288244 _0_ AGT  --- 43 ack 60 [13a 0 1 800] ------- [1:0 0:0 32 0] [14 0] 1 0
s 1.289288244 _0_ AGT  --- 46 tcp 1040 [0 0 0 0] ------- [0:0 1:0 32 0] [29 0] 0 0
r 1.289288244 _0_ RTR  --- 46 tcp 1040 [0 0 0 0] ------- [0:0 1:0 32 0] [29 0] 0 0
s 1.289288244 _0_ RTR  --- 46 tcp 1060 [0 0 0 0] ------- [0:0 1:0 32 1] [29 0] 0 0
s 1.289288244 _0_ AGT  --- 47 tcp 1040 [0 0 0 0] ------- [0:0 1:0 32 0] [30 0] 0 0
r 1.289288244 _0_ RTR  --- 47 tcp 1040 [0 0 0 0] ------- [0:0 1:0 32 0] [30 0] 0 0
s 1.289288244 _0_ RTR  --- 47 tcp 1060 [0 0 0 0] ------- [0:0 1:0 32 1] [30 0] 0 0
r 1.289577261 _1_ MAC  --- 0 ACK 38 [0 1 0 0] 
s 1.289647244 _0_ MAC  --- 0 RTS 44 [256e 1 0 0] 
r 1.289999261 _1_ MAC  --- 0 RTS 44 [256e 1 0 0] 
s 1.290009261 _1_ MAC  --- 0 CTS 38 [2434 0 0 0] 
r 1.290313279 _0_ MAC  --- 0 CTS 38 [2434 0 0 0] 
s 1.290323279 _0_ MAC  --- 25 tcp 1118 [13a 1 0 800] ------- [0:0 1:0 32 1] [15 0] 0 0
r 1.299267296 _1_ MAC  --- 25 tcp 1060 [13a 1 0 800] ------- [0:0 1:0 32 1] [15 0] 1 0
s 1.299277296 _1_ MAC  --- 0 ACK 38 [0 0 0 0] 
r 1.299292296 _1_ AGT  --- 25 tcp 1060 [13a 1 0 800] ------- [0:0 1:0 32 1] [15 0] 1 0
s 1.299292296 _1_ AGT  --- 48 ack 40 [0 0 0 0] ------- [1:0 0:0 32 0] [15 0] 0 0
r 1.299292296 _1_ RTR  --- 48 ack 40 [0 0 0 0] ------- [1:0 0:0 32 0] [15 0] 0 0
s 1.299292296 _1_ RTR  --- 48 ack 60 [0 0 0 0] ------- [1:0 0:0 32 0] [15 0] 0 0
r 1.299581314 _0_ MAC  --- 0 ACK 38 [0 0 0 0] 