n -t * -s 0  -x 0 -y 0 -Z 0 -z 40  -v circle -c black
n -t * -s 1  -x 0 -y 0 -Z 0 -z 40  -v circle -c black
V -t * -v 1.0a5 -a 0
W -t * -x 500 -y 500
A -t * -n 1 -p 0 -o 0x7fffffff -c 30 -a 1
A -t * -h 1 -m 1073741823 -s 0
+ -t 0.029290548 -s 1 -d -1 -p message -e 32 -c 2 -a 0 -i 0 -k RTR 
- -t 0.029290548 -s 1 -d -1 -p message -e 32 -c 2 -a 0 -i 0 -k RTR
h -t 0.029290548 -s 1 -d -1 -p message -e 32 -c 2 -a 0 -i 0 -k RTR
+ -t 0.029365548 -s 1 -d -1 -p message -e 90 -c 2 -a 0 -i 0 -k MAC 
- -t 0.029365548 -s 1 -d -1 -p message -e 90 -c 2 -a 0 -i 0 -k MAC
h -t 0.029365548 -s 1 -d -1 -p message -e 90 -c 2 -a 0 -i 0 -k MAC
r -t 0.030085548 -s 0 -d -1 -p message -e 32 -c 2 -a 0 -i 0 -k MAC
r -t 0.030110548 -s 0 -d -1 -p message -e 32 -c 2 -a 0 -i 0 -k RTR
+ -t 1.000000000 -s 0 -d -1 -p tcp -e 40 -c 2 -a 0 -i 1 -k AGT 
- -t 1.000000000 -s 0 -d -1 -p tcp -e 40 -c 2 -a 0 -i 1 -k AGT
h -t 1.000000000 -s 0 -d -1 -p tcp -e 40 -c 2 -a 0 -i 1 -k AGT
+ -t 1.000000000 -s 0 -d 1 -p tcp -e 60 -c 2 -a 0 -i 1 -k RTR 
- -t 1.000000000 -s 0 -d 1 -p tcp -e 60 -c 2 -a 0 -i 1 -k RTR
h -t 1.000000000 -s 0 -d 1 -p tcp -e 60 -c 2 -a 0 -i 1 -k RTR
+ -t 1.000255000 -s 0 -d -1 -p ARP -e 86 -c 2 -a 0 -i 0 -k MAC 
- -t 1.000255000 -s 0 -d -1 -p ARP -e 86 -c 2 -a 0 -i 0 -k MAC
h -t 1.000255000 -s 0 -d -1 -p ARP -e 86 -c 2 -a 0 -i 0 -k MAC
r -t 1.000943000 -s 1 -d -1 -p ARP -e 28 -c 2 -a 0 -i 0 -k MAC
+ -t 1.001358000 -s 1 -d -1 -p RTS -e 44 -c 2 -a 0 -i 0 -k MAC 
- -t 1.001358000 -s 1 -d -1 -p RTS -e 44 -c 2 -a 0 -i 0 -k MAC
h -t 1.001358000 -s 1 -d -1 -p RTS -e 44 -c 2 -a 0 -i 0 -k MAC
r -t 1.001710000 -s 0 -d -1 -p RTS -e 44 -c 2 -a 0 -i 0 -k MAC
+ -t 1.001720000 -s 0 -d -1 -p CTS -e 38 -c 2 -a 0 -i 0 -k MAC 
- -t 1.001720000 -s 0 -d -1 -p CTS -e 38 -c 2 -a 0 -i 0 -k MAC
h -t 1.001720000 -s 0 -d -1 -p CTS -e 38 -c 2 -a 0 -i 0 -k MAC
r -t 1.002024000 -s 1 -d -1 -p CTS -e 38 -c 2 -a 0 -i 0 -k MAC
+ -t 1.002034000 -s 1 -d -1 -p ARP -e 86 -c 2 -a 0 -i 0 -k MAC 
- -t 1.002034000 -s 1 -d -1 -p ARP -e 86 -c 2 -a 0 -i 0 -k MAC
h -t 1.002034000 -s 1 -d -1 -p ARP -e 86 -c 2 -a 0 -i 0 -k MAC
r -t 1.002722000 -s 0 -d -1 -p ARP -e 28 -c 2 -a 0 -i 0 -k MAC
+ -t 1.002732000 -s 0 -d -1 -p ACK -e 38 -c 2 -a 0 -i 0 -k MAC 
- -t 1.002732000 -s 0 -d -1 -p ACK -e 38 -c 2 -a 0 -i 0 -k MAC
h -t 1.002732000 -s 0 -d -1 -p ACK -e 38 -c 2 -a 0 -i 0 -k MAC
r -t 1.003036000 -s 1 -d -1 -p ACK -e 38 -c 2 -a 0 -i 0 -k MAC
+ -t 1.003346000 -s 0 -d -1 -p RTS -e 44 -c 2 -a 0 -i 0 -k MAC 
- -t 1.003346000 -s 0 -d -1 -p RTS -e 44 -c 2 -a 0 -i 0 -k MAC
h -t 1.003346000 -s 0 -d -1 -p RTS -e 44 -c 2 -a 0 -i 0 -k MAC
r -t 1.003698000 -s 1 -d -1 -p RTS -e 44 -c 2 -a 0 -i 0 -k MAC
+ -t 1.003708000 -s 1 -d -1 -p CTS -e 38 -c 2 -a 0 -i 0 -k MAC 
- -t 1.003708000 -s 1 -d -1 -p CTS -e 38 -c 2 -a 0 -i 0 -k MAC
h -t 1.003708000 -s 1 -d -1 -p CTS -e 38 -c 2 -a 0 -i 0 -k MAC
r -t 1.004012000 -s 0 -d -1 -p CTS -e 38 -c 2 -a 0 -i 0 -k MAC
+ -t 1.004022000 -s 0 -d 1 -p tcp -e 118 -c 2 -a 0 -i 1 -k MAC 
- -t 1.004022000 -s 0 -d 1 -p tcp -e 118 -c 2 -a 0 -i 1 -k MAC
h -t 1.004022000 -s 0 -d 1 -p tcp -e 118 -c 2 -a 0 -i 1 -k MAC
r -t 1.004966000 -s 1 -d 1 -p tcp -e 60 -c 2 -a 0 -i 1 -k MAC
+ -t 1.004976000 -s 1 -d -1 -p ACK -e 38 -c 2 -a 0 -i 0 -k MAC 
- -t 1.004976000 -s 1 -d -1 -p ACK -e 38 -c 2 -a 0 -i 0 -k MAC
h -t 1.004976000 -s 1 -d -1 -p ACK -e 38 -c 2 -a 0 -i 0 -k MAC
r -t 1.004991000 -s 1 -d 1 -p tcp -e 60 -c 2 -a 0 -i 1 -k AGT
+ -t 1.004991000 -s 1 -d -1 -p ack -e 40 -c 2 -a 0 -i 2 -k AGT 
- -t 1.004991000 -s 1 -d -1 -p ack -e 40 -c 2 -a 0 -i 2 -k AGT
h -t 1.004991000 -s 1 -d -1 -p ack -e 40 -c 2 -a 0 -i 2 -k AGT
r -t 1.005280000 -s 0 -d -1 -p ACK -e 38 -c 2 -a 0 -i 0 -k MAC
n -t 1.100000 -s 0 -x 0.000000 -y 0.000000 -U 19.989602 -V 0.644826 -T 15.508062
n -t 1.100000 -s 1 -x 0.000000 -y 0.000000 -U 0.644826 -V 19.989602 -T 15.508062
+ -t 1.112189378 -s 0 -d -1 -p message -e 32 -c 2 -a 0 -i 3 -k RTR 
- -t 1.112189378 -s 0 -d -1 -p message -e 32 -c 2 -a 0 -i 3 -k RTR
h -t 1.112189378 -s 0 -d -1 -p message -e 32 -c 2 -a 0 -i 3 -k RTR
+ -t 1.112624378 -s 0 -d -1 -p message -e 90 -c 2 -a 0 -i 3 -k MAC 
- -t 1.112624378 -s 0 -d -1 -p message -e 90 -c 2 -a 0 -i 3 -k MAC
h -t 1.112624378 -s 0 -d -1 -p message -e 90 -c 2 -a 0 -i 3 -k MAC
r -t 1.113344379 -s 1 -d -1 -p message -e 32 -c 2 -a 0 -i 3 -k MAC
r -t 1.113369379 -s 1 -d -1 -p message -e 32 -c 2 -a 0 -i 3 -k RTR
+ -t 1.113369379 -s 1 -d 0 -p ack -e 80 -c 2 -a 0 -i 2 -k RTR 
- -t 1.113369379 -s 1 -d 0 -p ack -e 80 -c 2 -a 0 -i 2 -k RTR
h -t 1.113369379 -s 1 -d 0 -p ack -e 80 -c 2 -a 0 -i 2 -k RTR
+ -t 1.113604379 -s 1 -d -1 -p RTS -e 44 -c 2 -a 0 -i 0 -k MAC 
- -t 1.113604379 -s 1 -d -1 -p RTS -e 44 -c 2 -a 0 -i 0 -k MAC
h -t 1.113604379 -s 1 -d -1 -p RTS -e 44 -c 2 -a 0 -i 0 -k MAC
r -t 1.113956380 -s 0 -d -1 -p RTS -e 44 -c 2 -a 0 -i 0 -k MAC
+ -t 1.113966380 -s 0 -d -1 -p CTS -e 38 -c 2 -a 0 -i 0 -k MAC 
- -t 1.113966380 -s 0 -d -1 -p CTS -e 38 -c 2 -a 0 -i 0 -k MAC
h -t 1.113966380 -s 0 -d -1 -p CTS -e 38 -c 2 -a 0 -i 0 -k MAC
r -t 1.114270381 -s 1 -d -1 -p CTS -e 38 -c 2 -a 0 -i 0 -k MAC
+ -t 1.114280381 -s 1 -d 0 -p ack -e 138 -c 2 -a 0 -i 2 -k MAC 
- -t 1.114280381 -s 1 -d 0 -p ack -e 138 -c 2 -a 0 -i 2 -k MAC
h -t 1.114280381 -s 1 -d 0 -p ack -e 138 -c 2 -a 0 -i 2 -k MAC
r -t 1.115384383 -s 0 -d 0 -p ack -e 80 -c 2 -a 0 -i 2 -k MAC
+ -t 1.115394383 -s 0 -d -1 -p ACK -e 38 -c 2 -a 0 -i 0 -k MAC 
- -t 1.115394383 -s 0 -d -1 -p ACK -e 38 -c 2 -a 0 -i 0 -k MAC
h -t 1.115394383 -s 0 -d -1 -p ACK -e 38 -c 2 -a 0 -i 0 -k MAC
r -t 1.115409383 -s 0 -d 0 -p ack -e 80 -c 2 -a 0 -i 2 -k AGT
+ -t 1.115409383 -s 0 -d -1 -p tcp -e 1040 -c 2 -a 0 -i 4 -k AGT 
- -t 1.115409383 -s 0 -d -1 -p tcp -e 1040 -c 2 -a 0 -i 4 -k AGT
h -t 1.115409383 -s 0 -d -1 -p tcp -e 1040 -c 2 -a 0 -i 4 -k AGT
+ -t 1.115409383 -s 0 -d 1 -p tcp -e 1060 -c 2 -a 0 -i 4 -k RTR 
- -t 1.115409383 -s 0 -d 1 -p tcp -e 1060 -c 2 -a 0 -i 4 -k RTR
h -t 1.115409383 -s 0 -d 1 -p tcp -e 1060 -c 2 -a 0 -i 4 -k RTR
+ -t 1.115409383 -s 0 -d -1 -p tcp -e 1040 -c 2 -a 0 -i 5 -k AGT 
- -t 1.115409383 -s 0 -d -1 -p tcp -e 1040 -c 2 -a 0 -i 5 -k AGT
h -t 1.115409383 -s 0 -d -1 -p tcp -e 1040 -c 2 -a 0 -i 5 -k AGT
+ -t 1.115409383 -s 0 -d 1 -p tcp -e 1060 -c 2 -a 0 -i 5 -k RTR 
- -t 1.115409383 -s 0 -d 1 -p tcp -e 1060 -c 2 -a 0 -i 5 -k RTR
h -t 1.115409383 -s 0 -d 1 -p tcp -e 1060 -c 2 -a 0 -i 5 -k RTR
r -t 1.115698384 -s 1 -d -1 -p ACK -e 38 -c 2 -a 0 -i 0 -k MAC
+ -t 1.115788383 -s 0 -d -1 -p RTS -e 44 -c 2 -a 0 -i 0 -k MAC 
- -t 1.115788383 -s 0 -d -1 -p RTS -e 44 -c 2 -a 0 -i 0 -k MAC
h -t 1.115788383 -s 0 -d -1 -p RTS -e 44 -c 2 -a 0 -i 0 -k MAC
r -t 1.116140384 -s 1 -d -1 -p RTS -e 44 -c 2 -a 0 -i 0 -k MAC
+ -t 1.116150384 -s 1 -d -1 -p CTS -e 38 -c 2 -a 0 -i 0 -k MAC 
- -t 1.116150384 -s 1 -d -1 -p CTS -e 38 -c 2 -a 0 -i 0 -k MAC
h -t 1.116150384 -s 1 -d -1 -p CTS -e 38 -c 2 -a 0 -i 0 -k MAC
r -t 1.116454385 -s 0 -d -1 -p CTS -e 38 -c 2 -a 0 -i 0 -k MAC
+ -t 1.116464385 -s 0 -d 1 -p tcp -e 1118 -c 2 -a 0 -i 4 -k MAC 
- -t 1.116464385 -s 0 -d 1 -p tcp -e 1118 -c 2 -a 0 -i 4 -k MAC
h -t 1.116464385 -s 0 -d 1 -p tcp -e 1118 -c 2 -a 0 -i 4 -k MAC
r -t 1.125408387 -s 1 -d 1 -p tcp -e 1060 -c 2 -a 0 -i 4 -k MAC
+ -t 1.125418387 -s 1 -d -1 -p ACK -e 38 -c 2 -a 0 -i 0 -k MAC 
- -t 1.125418387 -s 1 -d -1 -p ACK -e 38 -c 2 -a 0 -i 0 -k MAC
h -t 1.125418387 -s 1 -d -1 -p ACK -e 38 -c 2 -a 0 -i 0 -k MAC
r -t 1.125433387 -s 1 -d 1 -p tcp -e 1060 -c 2 -a 0 -i 4 -k AGT
+ -t 1.125433387 -s 1 -d -1 -p ack -e 40 -c 2 -a 0 -i 6 -k AGT 
- -t 1.125433387 -s 1 -d -1 -p ack -e 40 -c 2 -a 0 -i 6 -k AGT
h -t 1.125433387 -s 1 -d -1 -p ack -e 40 -c 2 -a 0 -i 6 -k AGT
+ -t 1.125433387 -s 1 -d 0 -p ack -e 60 -c 2 -a 0 -i 6 -k RTR 
- -t 1.125433387 -s 1 -d 0 -p ack -e 60 -c 2 -a 0 -i 6 -k RTR
h -t 1.125433387 -s 1 -d 0 -p ack -e 60 -c 2 -a 0 -i 6 -k RTR
r -t 1.125722389 -s 0 -d -1 -p ACK -e 38 -c 2 -a 0 -i 0 -k MAC
+ -t 1.126112389 -s 0 -d -1 -p RTS -e 44 -c 2 -a 0 -i 0 -k MAC 
- -t 1.126112389 -s 0 -d -1 -p RTS -e 44 -c 2 -a 0 -i 0 -k MAC
h -t 1.126112389 -s 0 -d -1 -p RTS -e 44 -c 2 -a 0 -i 0 -k MAC
r -t 1.126464392 -s 1 -d -1 -p RTS -e 44 -c 2 -a 0 -i 0 -k MAC
+ -t 1.126474392 -s 1 -d -1 -p CTS -e 38 -c 2 -a 0 -i 0 -k MAC 
- -t 1.126474392 -s 1 -d -1 -p CTS -e 38 -c 2 -a 0 -i 0 -k MAC
h -t 1.126474392 -s 1 -d -1 -p CTS -e 38 -c 2 -a 0 -i 0 -k MAC
r -t 1.126778394 -s 0 -d -1 -p CTS -e 38 -c 2 -a 0 -i 0 -k MAC
+ -t 1.126788394 -s 0 -d 1 -p tcp -e 1118 -c 2 -a 0 -i 5 -k MAC 
- -t 1.126788394 -s 0 -d 1 -p tcp -e 1118 -c 2 -a 0 -i 5 -k MAC
h -t 1.126788394 -s 0 -d 1 -p tcp -e 1118 -c 2 -a 0 -i 5 -k MAC
r -t 1.135732396 -s 1 -d 1 -p tcp -e 1060 -c 2 -a 0 -i 5 -k MAC
+ -t 1.135742396 -s 1 -d -1 -p ACK -e 38 -c 2 -a 0 -i 0 -k MAC 
- -t 1.135742396 -s 1 -d -1 -p ACK -e 38 -c 2 -a 0 -i 0 -k MAC
h -t 1.135742396 -s 1 -d -1 -p ACK -e 38 -c 2 -a 0 -i 0 -k MAC
r -t 1.135757396 -s 1 -d 1 -p tcp -e 1060 -c 2 -a 0 -i 5 -k AGT
+ -t 1.135757396 -s 1 -d -1 -p ack -e 40 -c 2 -a 0 -i 7 -k AGT 
- -t 1.135757396 -s 1 -d -1 -p ack -e 40 -c 2 -a 0 -i 7 -k AGT
h -t 1.135757396 -s 1 -d -1 -p ack -e 40 -c 2 -a 0 -i 7 -k AGT
+ -t 1.135757396 -s 1 -d 0 -p ack -e 60 -c 2 -a 0 -i 7 -k RTR 
- -t 1.135757396 -s 1 -d 0 -p ack -e 60 -c 2 -a 0 -i 7 -k RTR
h -t 1.135757396 -s 1 -d 0 -p ack -e 60 -c 2 -a 0 -i 7 -k RTR
r -t 1.136046400 -s 0 -d -1 -p ACK -e 38 -c 2 -a 0 -i 0 -k MAC
+ -t 1.136196396 -s 1 -d -1 -p RTS -e 44 -c 2 -a 0 -i 0 -k MAC 
- -t 1.136196396 -s 1 -d -1 -p RTS -e 44 -c 2 -a 0 -i 0 -k MAC
h -t 1.136196396 -s 1 -d -1 -p RTS -e 44 -c 2 -a 0 -i 0 -k MAC
r -t 1.136548400 -s 0 -d -1 -p RTS -e 44 -c 2 -a 0 -i 0 -k MAC
+ -t 1.136558400 -s 0 -d -1 -p CTS -e 38 -c 2 -a 0 -i 0 -k MAC 
- -t 1.136558400 -s 0 -d -1 -p CTS -e 38 -c 2 -a 0 -i 0 -k MAC
h -t 1.136558400 -s 0 -d -1 -p CTS -e 38 -c 2 -a 0 -i 0 -k MAC
r -t 1.136862403 -s 1 -d -1 -p CTS -e 38 -c 2 -a 0 -i 0 -k MAC
+ -t 1.136872403 -s 1 -d 0 -p ack -e 118 -c 2 -a 0 -i 6 -k MAC 
- -t 1.136872403 -s 1 -d 0 -p ack -e 118 -c 2 -a 0 -i 6 -k MAC
h -t 1.136872403 -s 1 -d 0 -p ack -e 118 -c 2 -a 0 -i 6 -k MAC
r -t 1.137816406 -s 0 -d 0 -p ack -e 60 -c 2 -a 0 -i 6 -k MAC
+ -t 1.137826406 -s 0 -d -1 -p ACK -e 38 -c 2 -a 0 -i 0 -k MAC 
- -t 1.137826406 -s 0 -d -1 -p ACK -e 38 -c 2 -a 0 -i 0 -k MAC
h -t 1.137826406 -s 0 -d -1 -p ACK -e 38 -c 2 -a 0 -i 0 -k MAC
r -t 1.137841406 -s 0 -d 0 -p ack -e 60 -c 2 -a 0 -i 6 -k AGT
+ -t 1.137841406 -s 0 -d -1 -p tcp -e 1040 -c 2 -a 0 -i 8 -k AGT 
- -t 1.137841406 -s 0 -d -1 -p tcp -e 1040 -c 2 -a 0 -i 8 -k AGT
h -t 1.137841406 -s 0 -d -1 -p tcp -e 1040 -c 2 -a 0 -i 8 -k AGT
+ -t 1.137841406 -s 0 -d 1 -p tcp -e 1060 -c 2 -a 0 -i 8 -k RTR 
- -t 1.137841406 -s 0 -d 1 -p tcp -e 1060 -c 2 -a 0 -i 8 -k RTR
h -t 1.137841406 -s 0 -d 1 -p tcp -e 1060 -c 2 -a 0 -i 8 -k RTR
+ -t 1.137841406 -s 0 -d -1 -p tcp -e 1040 -c 2 -a 0 -i 9 -k AGT 
- -t 1.137841406 -s 0 -d -1 -p tcp -e 1040 -c 2 -a 0 -i 9 -k AGT
h -t 1.137841406 -s 0 -d -1 -p tcp -e 1040 -c 2 -a 0 -i 9 -k AGT
+ -t 1.137841406 -s 0 -d 1 -p tcp -e 1060 -c 2 -a 0 -i 9 -k RTR 
- -t 1.137841406 -s 0 -d 1 -p tcp -e 1060 -c 2 -a 0 -i 9 -k RTR
h -t 1.137841406 -s 0 -d 1 -p tcp -e 1060 -c 2 -a 0 -i 9 -k RTR
r -t 1.138130410 -s 1 -d -1 -p ACK -e 38 -c 2 -a 0 -i 0 -k MAC
+ -t 1.138380410 -s 1 -d -1 -p RTS -e 44 -c 2 -a 0 -i 0 -k MAC 
- -t 1.138380410 -s 1 -d -1 -p RTS -e 44 -c 2 -a 0 -i 0 -k MAC
h -t 1.138380410 -s 1 -d -1 -p RTS -e 44 -c 2 -a 0 -i 0 -k MAC
r -t 1.138732413 -s 0 -d -1 -p RTS -e 44 -c 2 -a 0 -i 0 -k MAC
+ -t 1.138742413 -s 0 -d -1 -p CTS -e 38 -c 2 -a 0 -i 0 -k MAC 
- -t 1.138742413 -s 0 -d -1 -p CTS -e 38 -c 2 -a 0 -i 0 -k MAC
h -t 1.138742413 -s 0 -d -1 -p CTS -e 38 -c 2 -a 0 -i 0 -k MAC
r -t 1.139046417 -s 1 -d -1 -p CTS -e 38 -c 2 -a 0 -i 0 -k MAC
+ -t 1.139056417 -s 1 -d 0 -p ack -e 118 -c 2 -a 0 -i 7 -k MAC 
- -t 1.139056417 -s 1 -d 0 -p ack -e 118 -c 2 -a 0 -i 7 -k MAC
h -t 1.139056417 -s 1 -d 0 -p ack -e 118 -c 2 -a 0 -i 7 -k MAC
r -t 1.140000421 -s 0 -d 0 -p ack -e 60 -c 2 -a 0 -i 7 -k MAC
+ -t 1.140010421 -s 0 -d -1 -p ACK -e 38 -c 2 -a 0 -i 0 -k MAC 
- -t 1.140010421 -s 0 -d -1 -p ACK -e 38 -c 2 -a 0 -i 0 -k MAC
h -t 1.140010421 -s 0 -d -1 -p ACK -e 38 -c 2 -a 0 -i 0 -k MAC
r -t 1.140025421 -s 0 -d 0 -p ack -e 60 -c 2 -a 0 -i 7 -k AGT
+ -t 1.140025421 -s 0 -d -1 -p tcp -e 1040 -c 2 -a 0 -i 10 -k AGT 
- -t 1.140025421 -s 0 -d -1 -p tcp -e 1040 -c 2 -a 0 -i 10 -k AGT
h -t 1.140025421 -s 0 -d -1 -p tcp -e 1040 -c 2 -a 0 -i 10 -k AGT
+ -t 1.140025421 -s 0 -d 1 -p tcp -e 1060 -c 2 -a 0 -i 10 -k RTR 
- -t 1.140025421 -s 0 -d 1 -p tcp -e 1060 -c 2 -a 0 -i 10 -k RTR
h -t 1.140025421 -s 0 -d 1 -p tcp -e 1060 -c 2 -a 0 -i 10 -k RTR
+ -t 1.140025421 -s 0 -d -1 -p tcp -e 1040 -c 2 -a 0 -i 11 -k AGT 
- -t 1.140025421 -s 0 -d -1 -p tcp -e 1040 -c 2 -a 0 -i 11 -k AGT
h -t 1.140025421 -s 0 -d -1 -p tcp -e 1040 -c 2 -a 0 -i 11 -k AGT
+ -t 1.140025421 -s 0 -d 1 -p tcp -e 1060 -c 2 -a 0 -i 11 -k RTR 
- -t 1.140025421 -s 0 -d 1 -p tcp -e 1060 -c 2 -a 0 -i 11 -k RTR
h -t 1.140025421 -s 0 -d 1 -p tcp -e 1060 -c 2 -a 0 -i 11 -k RTR
r -t 1.140314424 -s 1 -d -1 -p ACK -e 38 -c 2 -a 0 -i 0 -k MAC
+ -t 1.140384421 -s 0 -d -1 -p RTS -e 44 -c 2 -a 0 -i 0 -k MAC 
- -t 1.140384421 -s 0 -d -1 -p RTS -e 44 -c 2 -a 0 -i 0 -k MAC
h -t 1.140384421 -s 0 -d -1 -p RTS -e 44 -c 2 -a 0 -i 0 -k MAC
r -t 1.140736424 -s 1 -d -1 -p RTS -e 44 -c 2 -a 0 -i 0 -k MAC
+ -t 1.140746424 -s 1 -d -1 -p CTS -e 38 -c 2 -a 0 -i 0 -k MAC 
- -t 1.140746424 -s 1 -d -1 -p CTS -e 38 -c 2 -a 0 -i 0 -k MAC
h -t 1.140746424 -s 1 -d -1 -p CTS -e 38 -c 2 -a 0 -i 0 -k MAC
r -t 1.141050428 -s 0 -d -1 -p CTS -e 38 -c 2 -a 0 -i 0 -k MAC
+ -t 1.141060428 -s 0 -d 1 -p tcp -e 1118 -c 2 -a 0 -i 8 -k MAC 
- -t 1.141060428 -s 0 -d 1 -p tcp -e 1118 -c 2 -a 0 -i 8 -k MAC
h -t 1.141060428 -s 0 -d 1 -p tcp -e 1118 -c 2 -a 0 -i 8 -k MAC
r -t 1.150004432 -s 1 -d 1 -p tcp -e 1060 -c 2 -a 0 -i 8 -k MAC
+ -t 1.150014432 -s 1 -d -1 -p ACK -e 38 -c 2 -a 0 -i 0 -k MAC 
- -t 1.150014432 -s 1 -d -1 -p ACK -e 38 -c 2 -a 0 -i 0 -k MAC
h -t 1.150014432 -s 1 -d -1 -p ACK -e 38 -c 2 -a 0 -i 0 -k MAC
r -t 1.150029432 -s 1 -d 1 -p tcp -e 1060 -c 2 -a 0 -i 8 -k AGT
+ -t 1.150029432 -s 1 -d -1 -p ack -e 40 -c 2 -a 0 -i 12 -k AGT 
- -t 1.150029432 -s 1 -d -1 -p ack -e 40 -c 2 -a 0 -i 12 -k AGT
h -t 1.150029432 -s 1 -d -1 -p ack -e 40 -c 2 -a 0 -i 12 -k AGT
+ -t 1.150029432 -s 1 -d 0 -p ack -e 60 -c 2 -a 0 -i 12 -k RTR 
- -t 1.150029432 -s 1 -d 0 -p ack -e 60 -c 2 -a 0 -i 12 -k RTR
h -t 1.150029432 -s 1 -d 0 -p ack -e 60 -c 2 -a 0 -i 12 -k RTR
r -t 1.150318436 -s 0 -d -1 -p ACK -e 38 -c 2 -a 0 -i 0 -k MAC
+ -t 1.150388436 -s 0 -d -1 -p RTS -e 44 -c 2 -a 0 -i 0 -k MAC 
- -t 1.150388436 -s 0 -d -1 -p RTS -e 44 -c 2 -a 0 -i 0 -k MAC
h -t 1.150388436 -s 0 -d -1 -p RTS -e 44 -c 2 -a 0 -i 0 -k MAC
r -t 1.150740441 -s 1 -d -1 -p RTS -e 44 -c 2 -a 0 -i 0 -k MAC
+ -t 1.150750441 -s 1 -d -1 -p CTS -e 38 -c 2 -a 0 -i 0 -k MAC 
- -t 1.150750441 -s 1 -d -1 -p CTS -e 38 -c 2 -a 0 -i 0 -k MAC
h -t 1.150750441 -s 1 -d -1 -p CTS -e 38 -c 2 -a 0 -i 0 -k MAC
r -t 1.151054445 -s 0 -d -1 -p CTS -e 38 -c 2 -a 0 -i 0 -k MAC
+ -t 1.151064445 -s 0 -d 1 -p tcp -e 1118 -c 2 -a 0 -i 9 -k MAC 
- -t 1.151064445 -s 0 -d 1 -p tcp -e 1118 -c 2 -a 0 -i 9 -k MAC
h -t 1.151064445 -s 0 -d 1 -p tcp -e 1118 -c 2 -a 0 -i 9 -k MAC
r -t 1.160008450 -s 1 -d 1 -p tcp -e 1060 -c 2 -a 0 -i 9 -k MAC
+ -t 1.160018450 -s 1 -d -1 -p ACK -e 38 -c 2 -a 0 -i 0 -k MAC 
- -t 1.160018450 -s 1 -d -1 -p ACK -e 38 -c 2 -a 0 -i 0 -k MAC
h -t 1.160018450 -s 1 -d -1 -p ACK -e 38 -c 2 -a 0 -i 0 -k MAC
r -t 1.160033450 -s 1 -d 1 -p tcp -e 1060 -c 2 -a 0 -i 9 -k AGT
+ -t 1.160033450 -s 1 -d -1 -p ack -e 40 -c 2 -a 0 -i 13 -k AGT 
- -t 1.160033450 -s 1 -d -1 -p ack -e 40 -c 2 -a 0 -i 13 -k AGT
h -t 1.160033450 -s 1 -d -1 -p ack -e 40 -c 2 -a 0 -i 13 -k AGT
+ -t 1.160033450 -s 1 -d 0 -p ack -e 60 -c 2 -a 0 -i 13 -k RTR 
- -t 1.160033450 -s 1 -d 0 -p ack -e 60 -c 2 -a 0 -i 13 -k RTR
h -t 1.160033450 -s 1 -d 0 -p ack -e 60 -c 2 -a 0 -i 13 -k RTR
r -t 1.160322456 -s 0 -d -1 -p ACK -e 38 -c 2 -a 0 -i 0 -k MAC
+ -t 1.160552450 -s 1 -d -1 -p RTS -e 44 -c 2 -a 0 -i 0 -k MAC 
- -t 1.160552450 -s 1 -d -1 -p RTS -e 44 -c 2 -a 0 -i 0 -k MAC
h -t 1.160552450 -s 1 -d -1 -p RTS -e 44 -c 2 -a 0 -i 0 -k MAC
r -t 1.160904456 -s 0 -d -1 -p RTS -e 44 -c 2 -a 0 -i 0 -k MAC
+ -t 1.160914456 -s 0 -d -1 -p CTS -e 38 -c 2 -a 0 -i 0 -k MAC 
- -t 1.160914456 -s 0 -d -1 -p CTS -e 38 -c 2 -a 0 -i 0 -k MAC
h -t 1.160914456 -s 0 -d -1 -p CTS -e 38 -c 2 -a 0 -i 0 -k MAC
r -t 1.161218461 -s 1 -d -1 -p CTS -e 38 -c 2 -a 0 -i 0 -k MAC
+ -t 1.161228461 -s 1 -d 0 -p ack -e 118 -c 2 -a 0 -i 12 -k MAC 
- -t 1.161228461 -s 1 -d 0 -p ack -e 118 -c 2 -a 0 -i 12 -k MAC
h -t 1.161228461 -s 1 -d 0 -p ack -e 118 -c 2 -a 0 -i 12 -k MAC
r -t 1.162172467 -s 0 -d 0 -p ack -e 60 -c 2 -a 0 -i 12 -k MAC
+ -t 1.162182467 -s 0 -d -1 -p ACK -e 38 -c 2 -a 0 -i 0 -k MAC 
- -t 1.162182467 -s 0 -d -1 -p ACK -e 38 -c 2 -a 0 -i 0 -k MAC
h -t 1.162182467 -s 0 -d -1 -p ACK -e 38 -c 2 -a 0 -i 0 -k MAC
r -t 1.162197467 -s 0 -d 0 -p ack -e 60 -c 2 -a 0 -i 12 -k AGT
+ -t 1.162197467 -s 0 -d -1 -p tcp -e 1040 -c 2 -a 0 -i 14 -k AGT 
- -t 1.162197467 -s 0 -d -1 -p tcp -e 1040 -c 2 -a 0 -i 14 -k AGT
h -t 1.162197467 -s 0 -d -1 -p tcp -e 1040 -c 2 -a 0 -i 14 -k AGT
+ -t 1.162197467 -s 0 -d 1 -p tcp -e 1060 -c 2 -a 0 -i 14 -k RTR 
- -t 1.162197467 -s 0 -d 1 -p tcp -e 1060 -c 2 -a 0 -i 14 -k RTR
h -t 1.162197467 -s 0 -d 1 -p tcp -e 1060 -c 2 -a 0 -i 14 -k RTR
+ -t 1.162197467 -s 0 -d -1 -p tcp -e 1040 -c 2 -a 0 -i 15 -k AGT 
- -t 1.162197467 -s 0 -d -1 -p tcp -e 1040 -c 2 -a 0 -i 15 -k AGT
h -t 1.162197467 -s 0 -d -1 -p tcp -e 1040 -c 2 -a 0 -i 15 -k AGT
+ -t 1.162197467 -s 0 -d 1 -p tcp -e 1060 -c 2 -a 0 -i 15 -k RTR 
- -t 1.162197467 -s 0 -d 1 -p tcp -e 1060 -c 2 -a 0 -i 15 -k RTR
h -t 1.162197467 -s 0 -d 1 -p tcp -e 1060 -c 2 -a 0 -i 15 -k RTR
r -t 1.162486472 -s 1 -d -1 -p ACK -e 38 -c 2 -a 0 -i 0 -k MAC
+ -t 1.162596467 -s 0 -d -1 -p RTS -e 44 -c 2 -a 0 -i 0 -k MAC 
- -t 1.162596467 -s 0 -d -1 -p RTS -e 44 -c 2 -a 0 -i 0 -k MAC
h -t 1.162596467 -s 0 -d -1 -p RTS -e 44 -c 2 -a 0 -i 0 -k MAC
r -t 1.162948472 -s 1 -d -1 -p RTS -e 44 -c 2 -a 0 -i 0 -k MAC
+ -t 1.162958472 -s 1 -d -1 -p CTS -e 38 -c 2 -a 0 -i 0 -k MAC 
- -t 1.162958472 -s 1 -d -1 -p CTS -e 38 -c 2 -a 0 -i 0 -k MAC
h -t 1.162958472 -s 1 -d -1 -p CTS -e 38 -c 2 -a 0 -i 0 -k MAC
r -t 1.163262478 -s 0 -d -1 -p CTS -e 38 -c 2 -a 0 -i 0 -k MAC
+ -t 1.163272478 -s 0 -d 1 -p tcp -e 1118 -c 2 -a 0 -i 10 -k MAC 
- -t 1.163272478 -s 0 -d 1 -p tcp -e 1118 -c 2 -a 0 -i 10 -k MAC
h -t 1.163272478 -s 0 -d 1 -p tcp -e 1118 -c 2 -a 0 -i 10 -k MAC
r -t 1.172216484 -s 1 -d 1 -p tcp -e 1060 -c 2 -a 0 -i 10 -k MAC
+ -t 1.172226484 -s 1 -d -1 -p ACK -e 38 -c 2 -a 0 -i 0 -k MAC 
- -t 1.172226484 -s 1 -d -1 -p ACK -e 38 -c 2 -a 0 -i 0 -k MAC
h -t 1.172226484 -s 1 -d -1 -p ACK -e 38 -c 2 -a 0 -i 0 -k MAC
r -t 1.172241484 -s 1 -d 1 -p tcp -e 1060 -c 2 -a 0 -i 10 -k AGT
+ -t 1.172241484 -s 1 -d -1 -p ack -e 40 -c 2 -a 0 -i 16 -k AGT 
- -t 1.172241484 -s 1 -d -1 -p ack -e 40 -c 2 -a 0 -i 16 -k AGT
h -t 1.172241484 -s 1 -d -1 -p ack -e 40 -c 2 -a 0 -i 16 -k AGT
+ -t 1.172241484 -s 1 -d 0 -p ack -e 60 -c 2 -a 0 -i 16 -k RTR 
- -t 1.172241484 -s 1 -d 0 -p ack -e 60 -c 2 -a 0 -i 16 -k RTR
h -t 1.172241484 -s 1 -d 0 -p ack -e 60 -c 2 -a 0 -i 16 -k RTR
r -t 1.172530491 -s 0 -d -1 -p ACK -e 38 -c 2 -a 0 -i 0 -k MAC
+ -t 1.172760491 -s 0 -d -1 -p RTS -e 44 -c 2 -a 0 -i 0 -k MAC 
- -t 1.172760491 -s 0 -d -1 -p RTS -e 44 -c 2 -a 0 -i 0 -k MAC
h -t 1.172760491 -s 0 -d -1 -p RTS -e 44 -c 2 -a 0 -i 0 -k MAC
r -t 1.173112497 -s 1 -d -1 -p RTS -e 44 -c 2 -a 0 -i 0 -k MAC
+ -t 1.173122497 -s 1 -d -1 -p CTS -e 38 -c 2 -a 0 -i 0 -k MAC 
- -t 1.173122497 -s 1 -d -1 -p CTS -e 38 -c 2 -a 0 -i 0 -k MAC
h -t 1.173122497 -s 1 -d -1 -p CTS -e 38 -c 2 -a 0 -i 0 -k MAC
r -t 1.173426504 -s 0 -d -1 -p CTS -e 38 -c 2 -a 0 -i 0 -k MAC
+ -t 1.173436504 -s 0 -d 1 -p tcp -e 1118 -c 2 -a 0 -i 11 -k MAC 
- -t 1.173436504 -s 0 -d 1 -p tcp -e 1118 -c 2 -a 0 -i 11 -k MAC
h -t 1.173436504 -s 0 -d 1 -p tcp -e 1118 -c 2 -a 0 -i 11 -k MAC
r -t 1.182380511 -s 1 -d 1 -p tcp -e 1060 -c 2 -a 0 -i 11 -k MAC
+ -t 1.182390511 -s 1 -d -1 -p ACK -e 38 -c 2 -a 0 -i 0 -k MAC 
- -t 1.182390511 -s 1 -d -1 -p ACK -e 38 -c 2 -a 0 -i 0 -k MAC
h -t 1.182390511 -s 1 -d -1 -p ACK -e 38 -c 2 -a 0 -i 0 -k MAC
r -t 1.182405511 -s 1 -d 1 -p tcp -e 1060 -c 2 -a 0 -i 11 -k AGT
+ -t 1.182405511 -s 1 -d -1 -p ack -e 40 -c 2 -a 0 -i 17 -k AGT 
- -t 1.182405511 -s 1 -d -1 -p ack -e 40 -c 2 -a 0 -i 17 -k AGT
h -t 1.182405511 -s 1 -d -1 -p ack -e 40 -c 2 -a 0 -i 17 -k AGT
+ -t 1.182405511 -s 1 -d 0 -p ack -e 60 -c 2 -a 0 -i 17 -k RTR 
- -t 1.182405511 -s 1 -d 0 -p ack -e 60 -c 2 -a 0 -i 17 -k RTR
h -t 1.182405511 -s 1 -d 0 -p ack -e 60 -c 2 -a 0 -i 17 -k RTR
r -t 1.182694518 -s 0 -d -1 -p ACK -e 38 -c 2 -a 0 -i 0 -k MAC
+ -t 1.182944511 -s 1 -d -1 -p RTS -e 44 -c 2 -a 0 -i 0 -k MAC 
- -t 1.182944511 -s 1 -d -1 -p RTS -e 44 -c 2 -a 0 -i 0 -k MAC
h -t 1.182944511 -s 1 -d -1 -p RTS -e 44 -c 2 -a 0 -i 0 -k MAC
r -t 1.183296518 -s 0 -d -1 -p RTS -e 44 -c 2 -a 0 -i 0 -k MAC
+ -t 1.183306518 -s 0 -d -1 -p CTS -e 38 -c 2 -a 0 -i 0 -k MAC 
- -t 1.183306518 -s 0 -d -1 -p CTS -e 38 -c 2 -a 0 -i 0 -k MAC
h -t 1.183306518 -s 0 -d -1 -p CTS -e 38 -c 2 -a 0 -i 0 -k MAC
r -t 1.183610526 -s 1 -d -1 -p CTS -e 38 -c 2 -a 0 -i 0 -k MAC
+ -t 1.183620526 -s 1 -d 0 -p ack -e 118 -c 2 -a 0 -i 13 -k MAC 
- -t 1.183620526 -s 1 -d 0 -p ack -e 118 -c 2 -a 0 -i 13 -k MAC
h -t 1.183620526 -s 1 -d 0 -p ack -e 118 -c 2 -a 0 -i 13 -k MAC
r -t 1.184564533 -s 0 -d 0 -p ack -e 60 -c 2 -a 0 -i 13 -k MAC
+ -t 1.184574533 -s 0 -d -1 -p ACK -e 38 -c 2 -a 0 -i 0 -k MAC 
- -t 1.184574533 -s 0 -d -1 -p ACK -e 38 -c 2 -a 0 -i 0 -k MAC
h -t 1.184574533 -s 0 -d -1 -p ACK -e 38 -c 2 -a 0 -i 0 -k MAC
r -t 1.184589533 -s 0 -d 0 -p ack -e 60 -c 2 -a 0 -i 13 -k AGT
+ -t 1.184589533 -s 0 -d -1 -p tcp -e 1040 -c 2 -a 0 -i 18 -k AGT 
- -t 1.184589533 -s 0 -d -1 -p tcp -e 1040 -c 2 -a 0 -i 18 -k AGT
h -t 1.184589533 -s 0 -d -1 -p tcp -e 1040 -c 2 -a 0 -i 18 -k AGT
+ -t 1.184589533 -s 0 -d 1 -p tcp -e 1060 -c 2 -a 0 -i 18 -k RTR 
- -t 1.184589533 -s 0 -d 1 -p tcp -e 1060 -c 2 -a 0 -i 18 -k RTR
h -t 1.184589533 -s 0 -d 1 -p tcp -e 1060 -c 2 -a 0 -i 18 -k RTR
+ -t 1.184589533 -s 0 -d -1 -p tcp -e 1040 -c 2 -a 0 -i 19 -k AGT 
- -t 1.184589533 -s 0 -d -1 -p tcp -e 1040 -c 2 -a 0 -i 19 -k AGT
h -t 1.184589533 -s 0 -d -1 -p tcp -e 1040 -c 2 -a 0 -i 19 -k AGT
+ -t 1.184589533 -s 0 -d 1 -p tcp -e 1060 -c 2 -a 0 -i 19 -k RTR 
- -t 1.184589533 -s 0 -d 1 -p tcp -e 1060 -c 2 -a 0 -i 19 -k RTR
h -t 1.184589533 -s 0 -d 1 -p tcp -e 1060 -c 2 -a 0 -i 19 -k RTR
r -t 1.184878541 -s 1 -d -1 -p ACK -e 38 -c 2 -a 0 -i 0 -k MAC
+ -t 1.185308533 -s 0 -d -1 -p RTS -e 44 -c 2 -a 0 -i 0 -k MAC 
- -t 1.185308533 -s 0 -d -1 -p RTS -e 44 -c 2 -a 0 -i 0 -k MAC
h -t 1.185308533 -s 0 -d -1 -p RTS -e 44 -c 2 -a 0 -i 0 -k MAC
r -t 1.185660541 -s 1 -d -1 -p RTS -e 44 -c 2 -a 0 -i 0 -k MAC
+ -t 1.185670541 -s 1 -d -1 -p CTS -e 38 -c 2 -a 0 -i 0 -k MAC 
- -t 1.185670541 -s 1 -d -1 -p CTS -e 38 -c 2 -a 0 -i 0 -k MAC
h -t 1.185670541 -s 1 -d -1 -p CTS -e 38 -c 2 -a 0 -i 0 -k MAC
r -t 1.185974549 -s 0 -d -1 -p CTS -e 38 -c 2 -a 0 -i 0 -k MAC
+ -t 1.185984549 -s 0 -d 1 -p tcp -e 1118 -c 2 -a 0 -i 14 -k MAC 
- -t 1.185984549 -s 0 -d 1 -p tcp -e 1118 -c 2 -a 0 -i 14 -k MAC
h -t 1.185984549 -s 0 -d 1 -p tcp -e 1118 -c 2 -a 0 -i 14 -k MAC
r -t 1.194928557 -s 1 -d 1 -p tcp -e 1060 -c 2 -a 0 -i 14 -k MAC
+ -t 1.194938557 -s 1 -d -1 -p ACK -e 38 -c 2 -a 0 -i 0 -k MAC 
- -t 1.194938557 -s 1 -d -1 -p ACK -e 38 -c 2 -a 0 -i 0 -k MAC
h -t 1.194938557 -s 1 -d -1 -p ACK -e 38 -c 2 -a 0 -i 0 -k MAC
r -t 1.194953557 -s 1 -d 1 -p tcp -e 1060 -c 2 -a 0 -i 14 -k AGT
+ -t 1.194953557 -s 1 -d -1 -p ack -e 40 -c 2 -a 0 -i 20 -k AGT 
- -t 1.194953557 -s 1 -d -1 -p ack -e 40 -c 2 -a 0 -i 20 -k AGT
h -t 1.194953557 -s 1 -d -1 -p ack -e 40 -c 2 -a 0 -i 20 -k AGT
+ -t 1.194953557 -s 1 -d 0 -p ack -e 60 -c 2 -a 0 -i 20 -k RTR 
- -t 1.194953557 -s 1 -d 0 -p ack -e 60 -c 2 -a 0 -i 20 -k RTR
h -t 1.194953557 -s 1 -d 0 -p ack -e 60 -c 2 -a 0 -i 20 -k RTR
r -t 1.195242565 -s 0 -d -1 -p ACK -e 38 -c 2 -a 0 -i 0 -k MAC
+ -t 1.195312557 -s 1 -d -1 -p RTS -e 44 -c 2 -a 0 -i 0 -k MAC 
- -t 1.195312557 -s 1 -d -1 -p RTS -e 44 -c 2 -a 0 -i 0 -k MAC
h -t 1.195312557 -s 1 -d -1 -p RTS -e 44 -c 2 -a 0 -i 0 -k MAC
r -t 1.195664565 -s 0 -d -1 -p RTS -e 44 -c 2 -a 0 -i 0 -k MAC
+ -t 1.195674565 -s 0 -d -1 -p CTS -e 38 -c 2 -a 0 -i 0 -k MAC 
- -t 1.195674565 -s 0 -d -1 -p CTS -e 38 -c 2 -a 0 -i 0 -k MAC
h -t 1.195674565 -s 0 -d -1 -p CTS -e 38 -c 2 -a 0 -i 0 -k MAC
r -t 1.195978574 -s 1 -d -1 -p CTS -e 38 -c 2 -a 0 -i 0 -k MAC
+ -t 1.195988574 -s 1 -d 0 -p ack -e 118 -c 2 -a 0 -i 16 -k MAC 
- -t 1.195988574 -s 1 -d 0 -p ack -e 118 -c 2 -a 0 -i 16 -k MAC
h -t 1.195988574 -s 1 -d 0 -p ack -e 118 -c 2 -a 0 -i 16 -k MAC
r -t 1.196932583 -s 0 -d 0 -p ack -e 60 -c 2 -a 0 -i 16 -k MAC
+ -t 1.196942583 -s 0 -d -1 -p ACK -e 38 -c 2 -a 0 -i 0 -k MAC 
- -t 1.196942583 -s 0 -d -1 -p ACK -e 38 -c 2 -a 0 -i 0 -k MAC
h -t 1.196942583 -s 0 -d -1 -p ACK -e 38 -c 2 -a 0 -i 0 -k MAC
r -t 1.196957583 -s 0 -d 0 -p ack -e 60 -c 2 -a 0 -i 16 -k AGT
+ -t 1.196957583 -s 0 -d -1 -p tcp -e 1040 -c 2 -a 0 -i 21 -k AGT 
- -t 1.196957583 -s 0 -d -1 -p tcp -e 1040 -c 2 -a 0 -i 21 -k AGT
h -t 1.196957583 -s 0 -d -1 -p tcp -e 1040 -c 2 -a 0 -i 21 -k AGT
+ -t 1.196957583 -s 0 -d 1 -p tcp -e 1060 -c 2 -a 0 -i 21 -k RTR 
- -t 1.196957583 -s 0 -d 1 -p tcp -e 1060 -c 2 -a 0 -i 21 -k RTR
h -t 1.196957583 -s 0 -d 1 -p tcp -e 1060 -c 2 -a 0 -i 21 -k RTR
+ -t 1.196957583 -s 0 -d -1 -p tcp -e 1040 -c 2 -a 0 -i 22 -k AGT 
- -t 1.196957583 -s 0 -d -1 -p tcp -e 1040 -c 2 -a 0 -i 22 -k AGT
h -t 1.196957583 -s 0 -d -1 -p tcp -e 1040 -c 2 -a 0 -i 22 -k AGT
+ -t 1.196957583 -s 0 -d 1 -p tcp -e 1060 -c 2 -a 0 -i 22 -k RTR 
- -t 1.196957583 -s 0 -d 1 -p tcp -e 1060 -c 2 -a 0 -i 22 -k RTR
h -t 1.196957583 -s 0 -d 1 -p tcp -e 1060 -c 2 -a 0 -i 22 -k RTR
r -t 1.197246592 -s 1 -d -1 -p ACK -e 38 -c 2 -a 0 -i 0 -k MAC
+ -t 1.197656592 -s 1 -d -1 -p RTS -e 44 -c 2 -a 0 -i 0 -k MAC 
- -t 1.197656592 -s 1 -d -1 -p RTS -e 44 -c 2 -a 0 -i 0 -k MAC
h -t 1.197656592 -s 1 -d -1 -p RTS -e 44 -c 2 -a 0 -i 0 -k MAC
r -t 1.198008601 -s 0 -d -1 -p RTS -e 44 -c 2 -a 0 -i 0 -k MAC
+ -t 1.198018601 -s 0 -d -1 -p CTS -e 38 -c 2 -a 0 -i 0 -k MAC 
- -t 1.198018601 -s 0 -d -1 -p CTS -e 38 -c 2 -a 0 -i 0 -k MAC
h -t 1.198018601 -s 0 -d -1 -p CTS -e 38 -c 2 -a 0 -i 0 -k MAC
r -t 1.198322610 -s 1 -d -1 -p CTS -e 38 -c 2 -a 0 -i 0 -k MAC
+ -t 1.198332610 -s 1 -d 0 -p ack -e 118 -c 2 -a 0 -i 17 -k MAC 
- -t 1.198332610 -s 1 -d 0 -p ack -e 118 -c 2 -a 0 -i 17 -k MAC
h -t 1.198332610 -s 1 -d 0 -p ack -e 118 -c 2 -a 0 -i 17 -k MAC
r -t 1.199276619 -s 0 -d 0 -p ack -e 60 -c 2 -a 0 -i 17 -k MAC
+ -t 1.199286619 -s 0 -d -1 -p ACK -e 38 -c 2 -a 0 -i 0 -k MAC 
- -t 1.199286619 -s 0 -d -1 -p ACK -e 38 -c 2 -a 0 -i 0 -k MAC
h -t 1.199286619 -s 0 -d -1 -p ACK -e 38 -c 2 -a 0 -i 0 -k MAC
r -t 1.199301619 -s 0 -d 0 -p ack -e 60 -c 2 -a 0 -i 17 -k AGT
+ -t 1.199301619 -s 0 -d -1 -p tcp -e 1040 -c 2 -a 0 -i 23 -k AGT 
- -t 1.199301619 -s 0 -d -1 -p tcp -e 1040 -c 2 -a 0 -i 23 -k AGT
h -t 1.199301619 -s 0 -d -1 -p tcp -e 1040 -c 2 -a 0 -i 23 -k AGT
+ -t 1.199301619 -s 0 -d 1 -p tcp -e 1060 -c 2 -a 0 -i 23 -k RTR 
- -t 1.199301619 -s 0 -d 1 -p tcp -e 1060 -c 2 -a 0 -i 23 -k RTR
h -t 1.199301619 -s 0 -d 1 -p tcp -e 1060 -c 2 -a 0 -i 23 -k RTR
+ -t 1.199301619 -s 0 -d -1 -p tcp -e 1040 -c 2 -a 0 -i 24 -k AGT 
- -t 1.199301619 -s 0 -d -1 -p tcp -e 1040 -c 2 -a 0 -i 24 -k AGT
h -t 1.199301619 -s 0 -d -1 -p tcp -e 1040 -c 2 -a 0 -i 24 -k AGT
+ -t 1.199301619 -s 0 -d 1 -p tcp -e 1060 -c 2 -a 0 -i 24 -k RTR 
- -t 1.199301619 -s 0 -d 1 -p tcp -e 1060 -c 2 -a 0 -i 24 -k RTR
h -t 1.199301619 -s 0 -d 1 -p tcp -e 1060 -c 2 -a 0 -i 24 -k RTR
r -t 1.199590628 -s 1 -d -1 -p ACK -e 38 -c 2 -a 0 -i 0 -k MAC
+ -t 1.199680628 -s 1 -d -1 -p RTS -e 44 -c 2 -a 0 -i 0 -k MAC 
- -t 1.199680628 -s 1 -d -1 -p RTS -e 44 -c 2 -a 0 -i 0 -k MAC
h -t 1.199680628 -s 1 -d -1 -p RTS -e 44 -c 2 -a 0 -i 0 -k MAC
r -t 1.200032637 -s 0 -d -1 -p RTS -e 44 -c 2 -a 0 -i 0 -k MAC
+ -t 1.200042637 -s 0 -d -1 -p CTS -e 38 -c 2 -a 0 -i 0 -k MAC 
- -t 1.200042637 -s 0 -d -1 -p CTS -e 38 -c 2 -a 0 -i 0 -k MAC
h -t 1.200042637 -s 0 -d -1 -p CTS -e 38 -c 2 -a 0 -i 0 -k MAC
r -t 1.200346646 -s 1 -d -1 -p CTS -e 38 -c 2 -a 0 -i 0 -k MAC
+ -t 1.200356646 -s 1 -d 0 -p ack -e 118 -c 2 -a 0 -i 20 -k MAC 
- -t 1.200356646 -s 1 -d 0 -p ack -e 118 -c 2 -a 0 -i 20 -k MAC
h -t 1.200356646 -s 1 -d 0 -p ack -e 118 -c 2 -a 0 -i 20 -k MAC
r -t 1.201300655 -s 0 -d 0 -p ack -e 60 -c 2 -a 0 -i 20 -k MAC
+ -t 1.201310655 -s 0 -d -1 -p ACK -e 38 -c 2 -a 0 -i 0 -k MAC 
- -t 1.201310655 -s 0 -d -1 -p ACK -e 38 -c 2 -a 0 -i 0 -k MAC
h -t 1.201310655 -s 0 -d -1 -p ACK -e 38 -c 2 -a 0 -i 0 -k MAC
r -t 1.201325655 -s 0 -d 0 -p ack -e 60 -c 2 -a 0 -i 20 -k AGT
+ -t 1.201325655 -s 0 -d -1 -p tcp -e 1040 -c 2 -a 0 -i 25 -k AGT 
- -t 1.201325655 -s 0 -d -1 -p tcp -e 1040 -c 2 -a 0 -i 25 -k AGT
h -t 1.201325655 -s 0 -d -1 -p tcp -e 1040 -c 2 -a 0 -i 25 -k AGT
+ -t 1.201325655 -s 0 -d 1 -p tcp -e 1060 -c 2 -a 0 -i 25 -k RTR 
- -t 1.201325655 -s 0 -d 1 -p tcp -e 1060 -c 2 -a 0 -i 25 -k RTR
h -t 1.201325655 -s 0 -d 1 -p tcp -e 1060 -c 2 -a 0 -i 25 -k RTR
+ -t 1.201325655 -s 0 -d -1 -p tcp -e 1040 -c 2 -a 0 -i 26 -k AGT 
- -t 1.201325655 -s 0 -d -1 -p tcp -e 1040 -c 2 -a 0 -i 26 -k AGT
h -t 1.201325655 -s 0 -d -1 -p tcp -e 1040 -c 2 -a 0 -i 26 -k AGT
+ -t 1.201325655 -s 0 -d 1 -p tcp -e 1060 -c 2 -a 0 -i 26 -k RTR 
- -t 1.201325655 -s 0 -d 1 -p tcp -e 1060 -c 2 -a 0 -i 26 -k RTR
h -t 1.201325655 -s 0 -d 1 -p tcp -e 1060 -c 2 -a 0 -i 26 -k RTR
r -t 1.201614664 -s 1 -d -1 -p ACK -e 38 -c 2 -a 0 -i 0 -k MAC
+ -t 1.201784655 -s 0 -d -1 -p RTS -e 44 -c 2 -a 0 -i 0 -k MAC 
- -t 1.201784655 -s 0 -d -1 -p RTS -e 44 -c 2 -a 0 -i 0 -k MAC
h -t 1.201784655 -s 0 -d -1 -p RTS -e 44 -c 2 -a 0 -i 0 -k MAC
r -t 1.202136664 -s 1 -d -1 -p RTS -e 44 -c 2 -a 0 -i 0 -k MAC